/*--------------------------------*- C++ -*----------------------------------*\
| =========                 |                                                 |
| \\      /  F ield         | OpenFOAM: The Open Source CFD Toolbox           |
|  \\    /   O peration     | Version:  2.3.x                                 |
|   \\  /    A nd           | Web:      www.OpenFOAM.org                      |
|    \\/     M anipulation  |                                                 |
\*---------------------------------------------------------------------------*/
FoamFile
{
    version     2.0;
    format      ascii;
    class       surfaceScalarField;
    location    "0.1";
    object      phi;
}
// * * * * * * * * * * * * * * * * * * * * * * * * * * * * * * * * * * * * * //

dimensions      [1 0 -1 0 0 0 0];

internalField   nonuniform List<scalar> 
99400
(
-1.34568e-09
-0.0503264
-3.66094e-10
-0.0503265
-2.15505e-10
-0.0503265
7.26736e-12
-0.0503265
1.71563e-10
-0.0503265
3.07581e-10
-0.0503265
4.26431e-10
-0.0503265
5.32665e-10
-0.0503265
6.3131e-10
-0.0503265
7.26158e-10
-0.0503265
8.18881e-10
-0.0503265
9.09012e-10
-0.0503265
9.95522e-10
-0.0503265
1.07894e-09
-0.0503265
1.15945e-09
-0.0503265
1.23764e-09
-0.0503265
1.31387e-09
-0.0503265
1.38813e-09
-0.0503265
1.46035e-09
-0.0503265
1.53054e-09
-0.0503265
1.59886e-09
-0.0503265
1.66538e-09
-0.0503265
1.73017e-09
-0.0503265
1.79328e-09
-0.0503265
1.85477e-09
-0.0503265
1.91475e-09
-0.0503265
1.97322e-09
-0.0503265
2.03008e-09
-0.0503265
2.08547e-09
-0.0503265
2.13954e-09
-0.0503265
2.19198e-09
-0.0503265
2.24265e-09
-0.0503265
2.29191e-09
-0.0503265
2.33967e-09
-0.0503265
2.38543e-09
-0.0503265
2.42918e-09
-0.0503265
2.47128e-09
-0.0503265
2.51146e-09
-0.0503265
2.54924e-09
-0.0503265
2.5847e-09
-0.0503265
2.61813e-09
-0.0503265
2.64936e-09
-0.0503265
2.67804e-09
-0.0503265
2.70417e-09
-0.0503265
2.72799e-09
-0.0503265
2.74946e-09
-0.0503265
2.76834e-09
-0.0503265
2.78444e-09
-0.0503265
2.79778e-09
-0.0503265
2.80839e-09
-0.0503265
2.81613e-09
-0.0503265
2.82078e-09
-0.0503265
2.82221e-09
-0.0503265
2.82042e-09
-0.0503265
2.81549e-09
-0.0503265
2.80741e-09
-0.0503265
2.79611e-09
-0.0503265
2.78154e-09
-0.0503265
2.76374e-09
-0.0503265
2.74282e-09
-0.0503265
2.71887e-09
-0.0503265
2.69193e-09
-0.0503265
2.66199e-09
-0.0503265
2.62904e-09
-0.0503265
2.59314e-09
-0.0503265
2.55441e-09
-0.0503265
2.51298e-09
-0.0503265
2.46892e-09
-0.0503265
2.42228e-09
-0.0503265
2.37307e-09
-0.0503265
2.32139e-09
-0.0503265
2.26735e-09
-0.0503265
2.21111e-09
-0.0503265
2.15276e-09
-0.0503265
2.09238e-09
-0.0503265
2.03001e-09
-0.0503265
1.96574e-09
-0.0503265
1.89966e-09
-0.0503265
1.8319e-09
-0.0503265
1.76259e-09
-0.0503265
1.69185e-09
-0.0503265
1.61983e-09
-0.0503265
1.54664e-09
-0.0503265
1.47241e-09
-0.0503265
1.39729e-09
-0.0503265
1.32142e-09
-0.0503265
1.24507e-09
-0.0503265
1.16866e-09
-0.0503265
1.09278e-09
-0.0503265
1.01816e-09
-0.0503265
9.45641e-10
-0.0503265
8.76326e-10
-0.0503265
8.12005e-10
-0.0503265
7.55978e-10
-0.0503265
7.1455e-10
-0.0503265
7.01778e-10
-0.0503265
7.4608e-10
-0.0503265
7.19116e-10
-0.0503265
1.5222e-09
-0.0503265
-0.0503264
1.14939e-10
-0.0503366
-1.85397e-10
-0.0503365
-5.69802e-11
-0.0503365
7.13978e-11
-0.0503365
2.00829e-10
-0.0503365
3.23846e-10
-0.0503365
4.37051e-10
-0.0503365
5.40218e-10
-0.0503365
6.3682e-10
-0.0503365
7.30581e-10
-0.0503365
8.22686e-10
-0.0503365
9.12432e-10
-0.0503365
9.98812e-10
-0.0503365
1.08197e-09
-0.0503365
1.16227e-09
-0.0503365
1.24044e-09
-0.0503365
1.31656e-09
-0.0503365
1.39066e-09
-0.0503365
1.46288e-09
-0.0503365
1.53293e-09
-0.0503365
1.60124e-09
-0.0503365
1.6677e-09
-0.0503365
1.73231e-09
-0.0503365
1.79556e-09
-0.0503365
1.85705e-09
-0.0503365
1.91682e-09
-0.0503365
1.97539e-09
-0.0503365
2.03243e-09
-0.0503365
2.08777e-09
-0.0503365
2.14176e-09
-0.0503365
2.19434e-09
-0.0503365
2.24522e-09
-0.0503365
2.2945e-09
-0.0503365
2.34219e-09
-0.0503365
2.38806e-09
-0.0503365
2.43206e-09
-0.0503365
2.4742e-09
-0.0503365
2.5143e-09
-0.0503365
2.55217e-09
-0.0503365
2.58784e-09
-0.0503365
2.62134e-09
-0.0503365
2.65251e-09
-0.0503365
2.68118e-09
-0.0503365
2.70741e-09
-0.0503365
2.73132e-09
-0.0503365
2.75283e-09
-0.0503365
2.77171e-09
-0.0503365
2.78787e-09
-0.0503365
2.80132e-09
-0.0503365
2.81204e-09
-0.0503365
2.81984e-09
-0.0503365
2.8245e-09
-0.0503365
2.82591e-09
-0.0503365
2.82414e-09
-0.0503365
2.81924e-09
-0.0503365
2.81119e-09
-0.0503365
2.79987e-09
-0.0503365
2.78523e-09
-0.0503365
2.76735e-09
-0.0503365
2.74636e-09
-0.0503365
2.72236e-09
-0.0503365
2.69537e-09
-0.0503365
2.66533e-09
-0.0503365
2.63227e-09
-0.0503365
2.59626e-09
-0.0503365
2.55745e-09
-0.0503365
2.51597e-09
-0.0503365
2.47186e-09
-0.0503365
2.42514e-09
-0.0503365
2.37584e-09
-0.0503365
2.32404e-09
-0.0503365
2.26988e-09
-0.0503365
2.21352e-09
-0.0503365
2.15506e-09
-0.0503365
2.09457e-09
-0.0503365
2.03208e-09
-0.0503365
1.96768e-09
-0.0503365
1.90146e-09
-0.0503365
1.83355e-09
-0.0503365
1.76408e-09
-0.0503365
1.6932e-09
-0.0503365
1.621e-09
-0.0503365
1.54764e-09
-0.0503365
1.47323e-09
-0.0503365
1.39792e-09
-0.0503365
1.32181e-09
-0.0503365
1.24509e-09
-0.0503365
1.16814e-09
-0.0503365
1.09156e-09
-0.0503365
1.01602e-09
-0.0503365
9.42221e-10
-0.0503365
8.70893e-10
-0.0503365
8.03134e-10
-0.0503365
7.40605e-10
-0.0503365
6.85256e-10
-0.0503365
6.37492e-10
-0.0503365
5.88769e-10
-0.0503365
5.40025e-10
-0.0503365
6.15145e-11
-0.0503365
-0.0503365
-8.57673e-11
-0.050351
-2.16533e-11
-0.050351
3.89222e-11
-0.050351
1.33758e-10
-0.050351
2.3869e-10
-0.050351
3.46774e-10
-0.050351
4.52563e-10
-0.050351
5.52758e-10
-0.050351
6.47823e-10
-0.050351
7.39873e-10
-0.050351
8.30204e-10
-0.050351
9.18599e-10
-0.050351
1.00441e-09
-0.050351
1.08747e-09
-0.050351
1.16769e-09
-0.050351
1.24575e-09
-0.050351
1.32175e-09
-0.050351
1.39557e-09
-0.050351
1.46774e-09
-0.050351
1.53757e-09
-0.050351
1.60567e-09
-0.050351
1.67225e-09
-0.050351
1.73672e-09
-0.050351
1.79976e-09
-0.050351
1.86135e-09
-0.050351
1.92119e-09
-0.050351
1.9797e-09
-0.050351
2.03674e-09
-0.050351
2.0922e-09
-0.050351
2.14635e-09
-0.050351
2.19901e-09
-0.050351
2.24995e-09
-0.050351
2.29936e-09
-0.050351
2.34724e-09
-0.050351
2.39327e-09
-0.050351
2.43738e-09
-0.050351
2.47964e-09
-0.050351
2.5199e-09
-0.050351
2.55797e-09
-0.050351
2.59378e-09
-0.050351
2.62734e-09
-0.050351
2.65855e-09
-0.050351
2.68735e-09
-0.050351
2.71374e-09
-0.050351
2.73775e-09
-0.050351
2.75929e-09
-0.050351
2.77826e-09
-0.050351
2.79458e-09
-0.050351
2.80821e-09
-0.050351
2.81906e-09
-0.050351
2.82691e-09
-0.050351
2.83158e-09
-0.050351
2.83304e-09
-0.050351
2.83134e-09
-0.050351
2.82649e-09
-0.050351
2.81844e-09
-0.050351
2.80705e-09
-0.050351
2.79232e-09
-0.050351
2.77433e-09
-0.050351
2.75324e-09
-0.050351
2.72913e-09
-0.050351
2.70199e-09
-0.050351
2.67178e-09
-0.050351
2.63855e-09
-0.050351
2.60239e-09
-0.050351
2.56345e-09
-0.050351
2.52183e-09
-0.050351
2.47758e-09
-0.050351
2.4307e-09
-0.050351
2.38121e-09
-0.050351
2.32922e-09
-0.050351
2.27485e-09
-0.050351
2.21826e-09
-0.050351
2.15957e-09
-0.050351
2.09884e-09
-0.050351
2.03613e-09
-0.050351
1.97148e-09
-0.050351
1.90499e-09
-0.050351
1.83679e-09
-0.050351
1.76704e-09
-0.050351
1.69588e-09
-0.050351
1.62341e-09
-0.050351
1.54971e-09
-0.050351
1.4749e-09
-0.050351
1.39912e-09
-0.050351
1.3225e-09
-0.050351
1.24519e-09
-0.050351
1.16743e-09
-0.050351
1.08967e-09
-0.050351
1.01245e-09
-0.050351
9.36309e-10
-0.050351
8.61668e-10
-0.050351
7.88842e-10
-0.050351
7.1799e-10
-0.050351
6.48512e-10
-0.050351
5.77447e-10
-0.050351
4.95988e-10
-0.050351
3.77784e-10
-0.050351
2.6273e-10
-0.050351
-0.050351
1.51176e-11
-0.0503684
4.16645e-11
-0.0503684
1.05786e-10
-0.0503684
1.87557e-10
-0.0503684
2.77762e-10
-0.0503684
3.73179e-10
-0.0503684
4.71196e-10
-0.0503684
5.67956e-10
-0.0503684
6.61533e-10
-0.0503684
7.52085e-10
-0.0503684
8.40628e-10
-0.0503684
9.27638e-10
-0.0503684
1.01249e-09
-0.0503684
1.09526e-09
-0.0503684
1.17539e-09
-0.0503684
1.25324e-09
-0.0503684
1.32917e-09
-0.0503684
1.40264e-09
-0.0503684
1.47454e-09
-0.0503684
1.54441e-09
-0.0503684
1.61225e-09
-0.0503684
1.6786e-09
-0.0503684
1.7431e-09
-0.0503684
1.80609e-09
-0.0503684
1.86759e-09
-0.0503684
1.92741e-09
-0.0503684
1.98597e-09
-0.0503684
2.04314e-09
-0.0503684
2.09871e-09
-0.0503684
2.15293e-09
-0.0503684
2.20571e-09
-0.0503684
2.25684e-09
-0.0503684
2.30646e-09
-0.0503684
2.35451e-09
-0.0503684
2.40071e-09
-0.0503684
2.44501e-09
-0.0503684
2.48754e-09
-0.0503684
2.52807e-09
-0.0503684
2.56631e-09
-0.0503684
2.60223e-09
-0.0503684
2.63595e-09
-0.0503684
2.66737e-09
-0.0503684
2.69633e-09
-0.0503684
2.72282e-09
-0.0503684
2.74693e-09
-0.0503684
2.76863e-09
-0.0503684
2.7878e-09
-0.0503684
2.80433e-09
-0.0503684
2.81813e-09
-0.0503684
2.82908e-09
-0.0503684
2.83702e-09
-0.0503684
2.84179e-09
-0.0503684
2.84336e-09
-0.0503684
2.84174e-09
-0.0503684
2.83692e-09
-0.0503684
2.82882e-09
-0.0503684
2.81736e-09
-0.0503684
2.80254e-09
-0.0503684
2.78443e-09
-0.0503684
2.76318e-09
-0.0503684
2.73887e-09
-0.0503684
2.71152e-09
-0.0503684
2.68111e-09
-0.0503684
2.64767e-09
-0.0503684
2.6113e-09
-0.0503684
2.57215e-09
-0.0503684
2.53031e-09
-0.0503684
2.48585e-09
-0.0503684
2.43874e-09
-0.0503684
2.389e-09
-0.0503684
2.33671e-09
-0.0503684
2.28202e-09
-0.0503684
2.2251e-09
-0.0503684
2.16608e-09
-0.0503684
2.10503e-09
-0.0503684
2.04199e-09
-0.0503684
1.97699e-09
-0.0503684
1.91011e-09
-0.0503684
1.84149e-09
-0.0503684
1.77133e-09
-0.0503684
1.69978e-09
-0.0503684
1.62694e-09
-0.0503684
1.55283e-09
-0.0503684
1.47747e-09
-0.0503684
1.40096e-09
-0.0503684
1.32349e-09
-0.0503684
1.24525e-09
-0.0503684
1.16643e-09
-0.0503684
1.08727e-09
-0.0503684
1.00807e-09
-0.0503684
9.29148e-10
-0.0503684
8.50701e-10
-0.0503684
7.72558e-10
-0.0503684
6.94077e-10
-0.0503684
6.13735e-10
-0.0503684
5.28206e-10
-0.0503684
4.31376e-10
-0.0503684
3.14889e-10
-0.0503684
1.62714e-10
-0.0503684
-0.0503684
3.67272e-11
-0.050389
8.50157e-11
-0.050389
1.49063e-10
-0.050389
2.27849e-10
-0.050389
3.12828e-10
-0.050389
4.01103e-10
-0.050389
4.923e-10
-0.050389
5.8471e-10
-0.050389
6.76214e-10
-0.050389
7.65866e-10
-0.050389
8.5324e-10
-0.050389
9.39175e-10
-0.050389
1.02304e-09
-0.050389
1.10523e-09
-0.050389
1.18518e-09
-0.050389
1.26269e-09
-0.050389
1.33845e-09
-0.050389
1.41189e-09
-0.050389
1.48343e-09
-0.050389
1.55305e-09
-0.050389
1.62083e-09
-0.050389
1.68703e-09
-0.050389
1.7514e-09
-0.050389
1.8143e-09
-0.050389
1.87575e-09
-0.050389
1.93563e-09
-0.050389
1.99427e-09
-0.050389
2.05149e-09
-0.050389
2.10715e-09
-0.050389
2.16154e-09
-0.050389
2.21453e-09
-0.050389
2.26587e-09
-0.050389
2.31568e-09
-0.050389
2.36393e-09
-0.050389
2.4104e-09
-0.050389
2.45505e-09
-0.050389
2.49787e-09
-0.050389
2.53861e-09
-0.050389
2.57706e-09
-0.050389
2.61325e-09
-0.050389
2.64722e-09
-0.050389
2.67884e-09
-0.050389
2.70796e-09
-0.050389
2.7346e-09
-0.050389
2.75889e-09
-0.050389
2.78082e-09
-0.050389
2.80025e-09
-0.050389
2.81699e-09
-0.050389
2.83096e-09
-0.050389
2.84205e-09
-0.050389
2.85014e-09
-0.050389
2.85508e-09
-0.050389
2.85677e-09
-0.050389
2.85521e-09
-0.050389
2.8504e-09
-0.050389
2.84228e-09
-0.050389
2.83076e-09
-0.050389
2.81582e-09
-0.050389
2.79754e-09
-0.050389
2.77606e-09
-0.050389
2.75151e-09
-0.050389
2.72392e-09
-0.050389
2.69326e-09
-0.050389
2.65956e-09
-0.050389
2.62292e-09
-0.050389
2.58348e-09
-0.050389
2.54137e-09
-0.050389
2.49663e-09
-0.050389
2.44923e-09
-0.050389
2.39914e-09
-0.050389
2.34646e-09
-0.050389
2.29136e-09
-0.050389
2.23402e-09
-0.050389
2.1746e-09
-0.050389
2.11314e-09
-0.050389
2.04966e-09
-0.050389
1.9842e-09
-0.050389
1.91682e-09
-0.050389
1.84769e-09
-0.050389
1.77701e-09
-0.050389
1.70494e-09
-0.050389
1.63158e-09
-0.050389
1.55695e-09
-0.050389
1.48097e-09
-0.050389
1.40365e-09
-0.050389
1.32512e-09
-0.050389
1.24562e-09
-0.050389
1.1654e-09
-0.050389
1.08464e-09
-0.050389
1.00342e-09
-0.050389
9.21768e-10
-0.050389
8.39665e-10
-0.050389
7.56768e-10
-0.050389
6.72257e-10
-0.050389
5.84615e-10
-0.050389
4.9127e-10
-0.050389
3.8864e-10
-0.050389
2.72708e-10
-0.050389
1.42307e-10
-0.050389
-0.050389
5.56158e-11
-0.0504128
1.13832e-10
-0.0504128
1.79742e-10
-0.0504128
2.57097e-10
-0.0504128
3.40772e-10
-0.0504128
4.26735e-10
-0.0504128
5.14235e-10
-0.0504128
6.03114e-10
-0.0504128
6.92181e-10
-0.0504128
7.80545e-10
-0.0504128
8.67155e-10
-0.0504128
9.5239e-10
-0.0504128
1.0357e-09
-0.0504128
1.11713e-09
-0.0504128
1.19678e-09
-0.0504128
1.27418e-09
-0.0504128
1.3496e-09
-0.0504128
1.42283e-09
-0.0504128
1.49422e-09
-0.0504128
1.56364e-09
-0.0504128
1.63129e-09
-0.0504128
1.69733e-09
-0.0504128
1.76154e-09
-0.0504128
1.82442e-09
-0.0504128
1.88588e-09
-0.0504128
1.94577e-09
-0.0504128
2.00446e-09
-0.0504128
2.06177e-09
-0.0504128
2.11759e-09
-0.0504128
2.1722e-09
-0.0504128
2.22539e-09
-0.0504128
2.27691e-09
-0.0504128
2.32696e-09
-0.0504128
2.37556e-09
-0.0504128
2.42239e-09
-0.0504128
2.46735e-09
-0.0504128
2.51046e-09
-0.0504128
2.55152e-09
-0.0504128
2.59029e-09
-0.0504128
2.62679e-09
-0.0504128
2.66102e-09
-0.0504128
2.69286e-09
-0.0504128
2.72216e-09
-0.0504128
2.74903e-09
-0.0504128
2.77359e-09
-0.0504128
2.79581e-09
-0.0504128
2.81549e-09
-0.0504128
2.83245e-09
-0.0504128
2.84661e-09
-0.0504128
2.85792e-09
-0.0504128
2.86622e-09
-0.0504128
2.87133e-09
-0.0504128
2.87313e-09
-0.0504128
2.87164e-09
-0.0504128
2.86685e-09
-0.0504128
2.85872e-09
-0.0504128
2.84712e-09
-0.0504128
2.83202e-09
-0.0504128
2.81352e-09
-0.0504128
2.79179e-09
-0.0504128
2.76698e-09
-0.0504128
2.73911e-09
-0.0504128
2.70815e-09
-0.0504128
2.67412e-09
-0.0504128
2.63714e-09
-0.0504128
2.59738e-09
-0.0504128
2.55495e-09
-0.0504128
2.50987e-09
-0.0504128
2.46208e-09
-0.0504128
2.41156e-09
-0.0504128
2.3584e-09
-0.0504128
2.30282e-09
-0.0504128
2.245e-09
-0.0504128
2.18509e-09
-0.0504128
2.12313e-09
-0.0504128
2.05912e-09
-0.0504128
1.99307e-09
-0.0504128
1.92509e-09
-0.0504128
1.85538e-09
-0.0504128
1.78412e-09
-0.0504128
1.71144e-09
-0.0504128
1.63742e-09
-0.0504128
1.56206e-09
-0.0504128
1.48531e-09
-0.0504128
1.40712e-09
-0.0504128
1.32753e-09
-0.0504128
1.24672e-09
-0.0504128
1.16493e-09
-0.0504128
1.08235e-09
-0.0504128
9.99039e-10
-0.0504128
9.1485e-10
-0.0504128
8.2957e-10
-0.0504128
7.42823e-10
-0.0504128
6.53869e-10
-0.0504128
5.61615e-10
-0.0504128
4.64369e-10
-0.0504128
3.60175e-10
-0.0504128
2.47603e-10
-0.0504128
1.2646e-10
-0.0504128
-0.0504128
6.80721e-11
-0.0504397
1.34496e-10
-0.0504397
2.0413e-10
-0.0504397
2.8037e-10
-0.0504397
3.63075e-10
-0.0504397
4.48554e-10
-0.0504397
5.34941e-10
-0.0504397
6.21995e-10
-0.0504397
7.09197e-10
-0.0504397
7.96307e-10
-0.0504397
8.8226e-10
-0.0504397
9.66761e-10
-0.0504397
1.04976e-09
-0.0504397
1.13089e-09
-0.0504397
1.21011e-09
-0.0504397
1.2873e-09
-0.0504397
1.36251e-09
-0.0504397
1.43553e-09
-0.0504397
1.50682e-09
-0.0504397
1.57604e-09
-0.0504397
1.64348e-09
-0.0504397
1.70942e-09
-0.0504397
1.77355e-09
-0.0504397
1.8364e-09
-0.0504397
1.89785e-09
-0.0504397
1.95774e-09
-0.0504397
2.01651e-09
-0.0504397
2.07401e-09
-0.0504397
2.13002e-09
-0.0504397
2.18479e-09
-0.0504397
2.23818e-09
-0.0504397
2.28999e-09
-0.0504397
2.34039e-09
-0.0504397
2.38935e-09
-0.0504397
2.43653e-09
-0.0504397
2.48184e-09
-0.0504397
2.52533e-09
-0.0504397
2.56677e-09
-0.0504397
2.60593e-09
-0.0504397
2.64275e-09
-0.0504397
2.67725e-09
-0.0504397
2.70934e-09
-0.0504397
2.73892e-09
-0.0504397
2.76609e-09
-0.0504397
2.79096e-09
-0.0504397
2.81346e-09
-0.0504397
2.83341e-09
-0.0504397
2.85062e-09
-0.0504397
2.86505e-09
-0.0504397
2.87662e-09
-0.0504397
2.88513e-09
-0.0504397
2.89041e-09
-0.0504397
2.89234e-09
-0.0504397
2.89094e-09
-0.0504397
2.8862e-09
-0.0504397
2.87804e-09
-0.0504397
2.86633e-09
-0.0504397
2.85104e-09
-0.0504397
2.8323e-09
-0.0504397
2.8103e-09
-0.0504397
2.78519e-09
-0.0504397
2.75699e-09
-0.0504397
2.72568e-09
-0.0504397
2.69127e-09
-0.0504397
2.65391e-09
-0.0504397
2.61378e-09
-0.0504397
2.57098e-09
-0.0504397
2.52549e-09
-0.0504397
2.47722e-09
-0.0504397
2.42619e-09
-0.0504397
2.3725e-09
-0.0504397
2.31636e-09
-0.0504397
2.25799e-09
-0.0504397
2.19752e-09
-0.0504397
2.13498e-09
-0.0504397
2.07033e-09
-0.0504397
2.0036e-09
-0.0504397
1.93493e-09
-0.0504397
1.86454e-09
-0.0504397
1.79263e-09
-0.0504397
1.71931e-09
-0.0504397
1.64456e-09
-0.0504397
1.56835e-09
-0.0504397
1.49063e-09
-0.0504397
1.41138e-09
-0.0504397
1.33067e-09
-0.0504397
1.24859e-09
-0.0504397
1.16529e-09
-0.0504397
1.08092e-09
-0.0504397
9.95552e-10
-0.0504397
9.0902e-10
-0.0504397
8.21062e-10
-0.0504397
7.31309e-10
-0.0504397
6.39205e-10
-0.0504397
5.44069e-10
-0.0504397
4.44986e-10
-0.0504397
3.40941e-10
-0.0504397
2.3156e-10
-0.0504397
1.17221e-10
-0.0504397
-0.0504397
7.43486e-11
-0.0504698
1.47883e-10
-0.0504698
2.23114e-10
-0.0504698
3.00496e-10
-0.0504698
3.82404e-10
-0.0504698
4.67448e-10
-0.0504698
5.53597e-10
-0.0504698
6.40276e-10
-0.0504698
7.26664e-10
-0.0504698
8.12826e-10
-0.0504698
8.98232e-10
-0.0504698
9.8239e-10
-0.0504698
1.06502e-09
-0.0504698
1.14598e-09
-0.0504698
1.22496e-09
-0.0504698
1.30195e-09
-0.0504698
1.37706e-09
-0.0504698
1.4499e-09
-0.0504698
1.52103e-09
-0.0504698
1.59011e-09
-0.0504698
1.65741e-09
-0.0504698
1.72328e-09
-0.0504698
1.78736e-09
-0.0504698
1.85013e-09
-0.0504698
1.91158e-09
-0.0504698
1.97157e-09
-0.0504698
2.03048e-09
-0.0504698
2.08811e-09
-0.0504698
2.14428e-09
-0.0504698
2.19927e-09
-0.0504698
2.25295e-09
-0.0504698
2.30509e-09
-0.0504698
2.35586e-09
-0.0504698
2.4052e-09
-0.0504698
2.45277e-09
-0.0504698
2.4985e-09
-0.0504698
2.54244e-09
-0.0504698
2.58433e-09
-0.0504698
2.62387e-09
-0.0504698
2.66103e-09
-0.0504698
2.69586e-09
-0.0504698
2.72827e-09
-0.0504698
2.75819e-09
-0.0504698
2.78569e-09
-0.0504698
2.81087e-09
-0.0504698
2.83369e-09
-0.0504698
2.85395e-09
-0.0504698
2.87148e-09
-0.0504698
2.8862e-09
-0.0504698
2.89802e-09
-0.0504698
2.90676e-09
-0.0504698
2.91223e-09
-0.0504698
2.91433e-09
-0.0504698
2.91304e-09
-0.0504698
2.90834e-09
-0.0504698
2.90012e-09
-0.0504698
2.88827e-09
-0.0504698
2.87278e-09
-0.0504698
2.85379e-09
-0.0504698
2.8315e-09
-0.0504698
2.80606e-09
-0.0504698
2.77748e-09
-0.0504698
2.74575e-09
-0.0504698
2.71093e-09
-0.0504698
2.67317e-09
-0.0504698
2.63263e-09
-0.0504698
2.58939e-09
-0.0504698
2.5434e-09
-0.0504698
2.49459e-09
-0.0504698
2.44298e-09
-0.0504698
2.3887e-09
-0.0504698
2.33196e-09
-0.0504698
2.27298e-09
-0.0504698
2.21186e-09
-0.0504698
2.14863e-09
-0.0504698
2.08326e-09
-0.0504698
2.01579e-09
-0.0504698
1.94636e-09
-0.0504698
1.87521e-09
-0.0504698
1.80255e-09
-0.0504698
1.72847e-09
-0.0504698
1.65295e-09
-0.0504698
1.57585e-09
-0.0504698
1.49709e-09
-0.0504698
1.41668e-09
-0.0504698
1.33471e-09
-0.0504698
1.25131e-09
-0.0504698
1.16656e-09
-0.0504698
1.08053e-09
-0.0504698
9.93262e-10
-0.0504698
9.04643e-10
-0.0504698
8.1443e-10
-0.0504698
7.22361e-10
-0.0504698
6.28044e-10
-0.0504698
5.31105e-10
-0.0504698
4.31176e-10
-0.0504698
3.27798e-10
-0.0504698
2.21035e-10
-0.0504698
1.11294e-10
-0.0504698
-0.0504698
7.67904e-11
-0.050503
1.55892e-10
-0.050503
2.36661e-10
-0.050503
3.17295e-10
-0.050503
3.9985e-10
-0.050503
4.84872e-10
-0.050503
5.70957e-10
-0.050503
6.57568e-10
-0.050503
7.43933e-10
-0.050503
8.29852e-10
-0.050503
9.14917e-10
-0.050503
9.98947e-10
-0.050503
1.08136e-09
-0.050503
1.16223e-09
-0.050503
1.24116e-09
-0.050503
1.31803e-09
-0.050503
1.39305e-09
-0.050503
1.46579e-09
-0.050503
1.53679e-09
-0.050503
1.6058e-09
-0.050503
1.67304e-09
-0.050503
1.7388e-09
-0.050503
1.80281e-09
-0.050503
1.8656e-09
-0.050503
1.92712e-09
-0.050503
1.98719e-09
-0.050503
2.04623e-09
-0.050503
2.10401e-09
-0.050503
2.16038e-09
-0.050503
2.21564e-09
-0.050503
2.26965e-09
-0.050503
2.32215e-09
-0.050503
2.3733e-09
-0.050503
2.42306e-09
-0.050503
2.4711e-09
-0.050503
2.51733e-09
-0.050503
2.56175e-09
-0.050503
2.60408e-09
-0.050503
2.64403e-09
-0.050503
2.68159e-09
-0.050503
2.71681e-09
-0.050503
2.74961e-09
-0.050503
2.77989e-09
-0.050503
2.80774e-09
-0.050503
2.83327e-09
-0.050503
2.85645e-09
-0.050503
2.87707e-09
-0.050503
2.89493e-09
-0.050503
2.90995e-09
-0.050503
2.92204e-09
-0.050503
2.93104e-09
-0.050503
2.93674e-09
-0.050503
2.93902e-09
-0.050503
2.93784e-09
-0.050503
2.93315e-09
-0.050503
2.92487e-09
-0.050503
2.91288e-09
-0.050503
2.89718e-09
-0.050503
2.87793e-09
-0.050503
2.85531e-09
-0.050503
2.82948e-09
-0.050503
2.80048e-09
-0.050503
2.76831e-09
-0.050503
2.73306e-09
-0.050503
2.69485e-09
-0.050503
2.65385e-09
-0.050503
2.61009e-09
-0.050503
2.56354e-09
-0.050503
2.51413e-09
-0.050503
2.46189e-09
-0.050503
2.40697e-09
-0.050503
2.34957e-09
-0.050503
2.2899e-09
-0.050503
2.22806e-09
-0.050503
2.16406e-09
-0.050503
2.09788e-09
-0.050503
2.0296e-09
-0.050503
1.95938e-09
-0.050503
1.88743e-09
-0.050503
1.81392e-09
-0.050503
1.73898e-09
-0.050503
1.66255e-09
-0.050503
1.58451e-09
-0.050503
1.50471e-09
-0.050503
1.42314e-09
-0.050503
1.33987e-09
-0.050503
1.25508e-09
-0.050503
1.16889e-09
-0.050503
1.0813e-09
-0.050503
9.92312e-10
-0.050503
9.01855e-10
-0.050503
8.09737e-10
-0.050503
7.15823e-10
-0.050503
6.19909e-10
-0.050503
5.21814e-10
-0.050503
4.215e-10
-0.050503
3.18823e-10
-0.050503
2.14022e-10
-0.050503
1.07412e-10
-0.050503
-0.050503
7.94179e-11
-0.0505394
1.62068e-10
-0.0505394
2.46351e-10
-0.0505394
3.30828e-10
-0.0505394
4.15345e-10
-0.0505394
5.0107e-10
-0.0505394
5.87564e-10
-0.0505394
6.74348e-10
-0.0505394
7.60995e-10
-0.0505394
8.47044e-10
-0.0505394
9.3214e-10
-0.0505394
1.01619e-09
-0.0505394
1.09866e-09
-0.0505394
1.17956e-09
-0.0505394
1.25853e-09
-0.0505394
1.33538e-09
-0.0505394
1.41036e-09
-0.0505394
1.4831e-09
-0.0505394
1.55408e-09
-0.0505394
1.62301e-09
-0.0505394
1.69018e-09
-0.0505394
1.75592e-09
-0.0505394
1.81993e-09
-0.0505394
1.88276e-09
-0.0505394
1.94435e-09
-0.0505394
2.00453e-09
-0.0505394
2.0637e-09
-0.0505394
2.12168e-09
-0.0505394
2.1783e-09
-0.0505394
2.23388e-09
-0.0505394
2.28822e-09
-0.0505394
2.3411e-09
-0.0505394
2.39267e-09
-0.0505394
2.44292e-09
-0.0505394
2.49149e-09
-0.0505394
2.53824e-09
-0.0505394
2.58316e-09
-0.0505394
2.62597e-09
-0.0505394
2.66639e-09
-0.0505394
2.7044e-09
-0.0505394
2.74006e-09
-0.0505394
2.77326e-09
-0.0505394
2.80393e-09
-0.0505394
2.83216e-09
-0.0505394
2.8581e-09
-0.0505394
2.88168e-09
-0.0505394
2.90267e-09
-0.0505394
2.92087e-09
-0.0505394
2.93621e-09
-0.0505394
2.94861e-09
-0.0505394
2.9579e-09
-0.0505394
2.96385e-09
-0.0505394
2.96631e-09
-0.0505394
2.96523e-09
-0.0505394
2.96055e-09
-0.0505394
2.9522e-09
-0.0505394
2.94008e-09
-0.0505394
2.92416e-09
-0.0505394
2.90461e-09
-0.0505394
2.88162e-09
-0.0505394
2.85537e-09
-0.0505394
2.82592e-09
-0.0505394
2.79329e-09
-0.0505394
2.75757e-09
-0.0505394
2.71888e-09
-0.0505394
2.67735e-09
-0.0505394
2.63301e-09
-0.0505394
2.58584e-09
-0.0505394
2.53578e-09
-0.0505394
2.48288e-09
-0.0505394
2.42726e-09
-0.0505394
2.36915e-09
-0.0505394
2.30872e-09
-0.0505394
2.24608e-09
-0.0505394
2.18124e-09
-0.0505394
2.11419e-09
-0.0505394
2.04504e-09
-0.0505394
1.97396e-09
-0.0505394
1.90116e-09
-0.0505394
1.82678e-09
-0.0505394
1.75089e-09
-0.0505394
1.67345e-09
-0.0505394
1.59435e-09
-0.0505394
1.51346e-09
-0.0505394
1.43072e-09
-0.0505394
1.34621e-09
-0.0505394
1.26005e-09
-0.0505394
1.17241e-09
-0.0505394
1.08333e-09
-0.0505394
9.92762e-10
-0.0505394
9.00666e-10
-0.0505394
8.06931e-10
-0.0505394
7.11488e-10
-0.0505394
6.14328e-10
-0.0505394
5.15403e-10
-0.0505394
4.1488e-10
-0.0505394
3.12767e-10
-0.0505394
2.09352e-10
-0.0505394
1.04847e-10
-0.0505394
-0.0505394
8.35867e-11
-0.0505789
1.68795e-10
-0.0505789
2.54907e-10
-0.0505789
3.42096e-10
-0.0505789
4.28958e-10
-0.0505789
5.16039e-10
-0.0505789
6.03465e-10
-0.0505789
6.90832e-10
-0.0505789
7.77931e-10
-0.0505789
8.64343e-10
-0.0505789
9.49767e-10
-0.0505789
1.03408e-09
-0.0505789
1.1168e-09
-0.0505789
1.19783e-09
-0.0505789
1.2769e-09
-0.0505789
1.3539e-09
-0.0505789
1.42898e-09
-0.0505789
1.50174e-09
-0.0505789
1.57273e-09
-0.0505789
1.64166e-09
-0.0505789
1.70883e-09
-0.0505789
1.77459e-09
-0.0505789
1.83865e-09
-0.0505789
1.90155e-09
-0.0505789
1.96322e-09
-0.0505789
2.02351e-09
-0.0505789
2.08287e-09
-0.0505789
2.14109e-09
-0.0505789
2.19799e-09
-0.0505789
2.25388e-09
-0.0505789
2.30859e-09
-0.0505789
2.36189e-09
-0.0505789
2.41397e-09
-0.0505789
2.46476e-09
-0.0505789
2.51387e-09
-0.0505789
2.56115e-09
-0.0505789
2.60661e-09
-0.0505789
2.64996e-09
-0.0505789
2.6909e-09
-0.0505789
2.72941e-09
-0.0505789
2.76552e-09
-0.0505789
2.79915e-09
-0.0505789
2.83025e-09
-0.0505789
2.85892e-09
-0.0505789
2.8853e-09
-0.0505789
2.9093e-09
-0.0505789
2.93067e-09
-0.0505789
2.94923e-09
-0.0505789
2.96491e-09
-0.0505789
2.97766e-09
-0.0505789
2.98727e-09
-0.0505789
2.99349e-09
-0.0505789
2.99612e-09
-0.0505789
2.99513e-09
-0.0505789
2.99047e-09
-0.0505789
2.98206e-09
-0.0505789
2.96978e-09
-0.0505789
2.95363e-09
-0.0505789
2.93375e-09
-0.0505789
2.91036e-09
-0.0505789
2.88366e-09
-0.0505789
2.85374e-09
-0.0505789
2.82063e-09
-0.0505789
2.78441e-09
-0.0505789
2.74518e-09
-0.0505789
2.70307e-09
-0.0505789
2.6581e-09
-0.0505789
2.61026e-09
-0.0505789
2.55951e-09
-0.0505789
2.50589e-09
-0.0505789
2.44954e-09
-0.0505789
2.39064e-09
-0.0505789
2.32939e-09
-0.0505789
2.26589e-09
-0.0505789
2.20015e-09
-0.0505789
2.13218e-09
-0.0505789
2.0621e-09
-0.0505789
1.99009e-09
-0.0505789
1.91636e-09
-0.0505789
1.84105e-09
-0.0505789
1.76419e-09
-0.0505789
1.6857e-09
-0.0505789
1.60547e-09
-0.0505789
1.5234e-09
-0.0505789
1.43947e-09
-0.0505789
1.3537e-09
-0.0505789
1.26623e-09
-0.0505789
1.17719e-09
-0.0505789
1.08666e-09
-0.0505789
9.94602e-10
-0.0505789
9.01017e-10
-0.0505789
8.05855e-10
-0.0505789
7.09111e-10
-0.0505789
6.10897e-10
-0.0505789
5.11283e-10
-0.0505789
4.10552e-10
-0.0505789
3.08799e-10
-0.0505789
2.06302e-10
-0.0505789
1.03171e-10
-0.0505789
-0.0505789
8.80383e-11
-0.0506216
1.75749e-10
-0.0506216
2.63575e-10
-0.0506216
3.52442e-10
-0.0506216
4.41346e-10
-0.0506216
5.30053e-10
-0.0506216
6.1867e-10
-0.0506216
7.06992e-10
-0.0506216
7.94724e-10
-0.0506216
8.81825e-10
-0.0506216
9.67771e-10
-0.0506216
1.05251e-09
-0.0506216
1.13558e-09
-0.0506216
1.21694e-09
-0.0506216
1.29629e-09
-0.0506216
1.3735e-09
-0.0506216
1.44875e-09
-0.0506216
1.52162e-09
-0.0506216
1.59268e-09
-0.0506216
1.66168e-09
-0.0506216
1.72892e-09
-0.0506216
1.79477e-09
-0.0506216
1.8589e-09
-0.0506216
1.92187e-09
-0.0506216
1.98366e-09
-0.0506216
2.04412e-09
-0.0506216
2.1037e-09
-0.0506216
2.16218e-09
-0.0506216
2.21937e-09
-0.0506216
2.2756e-09
-0.0506216
2.33073e-09
-0.0506216
2.38452e-09
-0.0506216
2.43714e-09
-0.0506216
2.48849e-09
-0.0506216
2.53816e-09
-0.0506216
2.58603e-09
-0.0506216
2.63207e-09
-0.0506216
2.67602e-09
-0.0506216
2.71751e-09
-0.0506216
2.75653e-09
-0.0506216
2.79312e-09
-0.0506216
2.82724e-09
-0.0506216
2.85882e-09
-0.0506216
2.88797e-09
-0.0506216
2.91481e-09
-0.0506216
2.93922e-09
-0.0506216
2.96099e-09
-0.0506216
2.97993e-09
-0.0506216
2.99602e-09
-0.0506216
3.00914e-09
-0.0506216
3.01908e-09
-0.0506216
3.02555e-09
-0.0506216
3.02836e-09
-0.0506216
3.02746e-09
-0.0506216
3.02283e-09
-0.0506216
3.01436e-09
-0.0506216
3.00193e-09
-0.0506216
2.98551e-09
-0.0506216
2.96526e-09
-0.0506216
2.94145e-09
-0.0506216
2.91428e-09
-0.0506216
2.88388e-09
-0.0506216
2.85027e-09
-0.0506216
2.8135e-09
-0.0506216
2.77369e-09
-0.0506216
2.73093e-09
-0.0506216
2.68528e-09
-0.0506216
2.63674e-09
-0.0506216
2.58527e-09
-0.0506216
2.53089e-09
-0.0506216
2.47374e-09
-0.0506216
2.41401e-09
-0.0506216
2.35187e-09
-0.0506216
2.28744e-09
-0.0506216
2.22075e-09
-0.0506216
2.15184e-09
-0.0506216
2.08079e-09
-0.0506216
2.0078e-09
-0.0506216
1.93306e-09
-0.0506216
1.85673e-09
-0.0506216
1.77883e-09
-0.0506216
1.69926e-09
-0.0506216
1.61789e-09
-0.0506216
1.53462e-09
-0.0506216
1.44943e-09
-0.0506216
1.36239e-09
-0.0506216
1.27362e-09
-0.0506216
1.18321e-09
-0.0506216
1.09128e-09
-0.0506216
9.97814e-10
-0.0506216
9.0282e-10
-0.0506216
8.06339e-10
-0.0506216
7.08419e-10
-0.0506216
6.09264e-10
-0.0506216
5.08999e-10
-0.0506216
4.07986e-10
-0.0506216
3.06376e-10
-0.0506216
2.04418e-10
-0.0506216
1.02121e-10
-0.0506216
-0.0506216
9.15421e-11
-0.0506674
1.81946e-10
-0.0506674
2.72006e-10
-0.0506674
3.62483e-10
-0.0506674
4.53103e-10
-0.0506674
5.43444e-10
-0.0506674
6.33355e-10
-0.0506674
7.22871e-10
-0.0506674
8.11516e-10
-0.0506674
8.99443e-10
-0.0506674
9.86075e-10
-0.0506674
1.07144e-09
-0.0506674
1.15502e-09
-0.0506674
1.23684e-09
-0.0506674
1.3166e-09
-0.0506674
1.39412e-09
-0.0506674
1.4696e-09
-0.0506674
1.54265e-09
-0.0506674
1.61389e-09
-0.0506674
1.68304e-09
-0.0506674
1.75041e-09
-0.0506674
1.81636e-09
-0.0506674
1.88058e-09
-0.0506674
1.94369e-09
-0.0506674
2.00566e-09
-0.0506674
2.06632e-09
-0.0506674
2.12613e-09
-0.0506674
2.18487e-09
-0.0506674
2.24238e-09
-0.0506674
2.29901e-09
-0.0506674
2.35462e-09
-0.0506674
2.40894e-09
-0.0506674
2.46212e-09
-0.0506674
2.51405e-09
-0.0506674
2.56433e-09
-0.0506674
2.61283e-09
-0.0506674
2.65952e-09
-0.0506674
2.70408e-09
-0.0506674
2.74614e-09
-0.0506674
2.78569e-09
-0.0506674
2.82282e-09
-0.0506674
2.85747e-09
-0.0506674
2.88958e-09
-0.0506674
2.91923e-09
-0.0506674
2.94652e-09
-0.0506674
2.97137e-09
-0.0506674
2.99356e-09
-0.0506674
3.01294e-09
-0.0506674
3.02945e-09
-0.0506674
3.04296e-09
-0.0506674
3.05323e-09
-0.0506674
3.05995e-09
-0.0506674
3.06295e-09
-0.0506674
3.06216e-09
-0.0506674
3.05757e-09
-0.0506674
3.04903e-09
-0.0506674
3.03642e-09
-0.0506674
3.01971e-09
-0.0506674
2.99908e-09
-0.0506674
2.97482e-09
-0.0506674
2.94718e-09
-0.0506674
2.91627e-09
-0.0506674
2.88212e-09
-0.0506674
2.84477e-09
-0.0506674
2.80432e-09
-0.0506674
2.76088e-09
-0.0506674
2.71451e-09
-0.0506674
2.66523e-09
-0.0506674
2.613e-09
-0.0506674
2.55782e-09
-0.0506674
2.49982e-09
-0.0506674
2.43919e-09
-0.0506674
2.37612e-09
-0.0506674
2.31071e-09
-0.0506674
2.24302e-09
-0.0506674
2.17311e-09
-0.0506674
2.10107e-09
-0.0506674
2.02705e-09
-0.0506674
1.95125e-09
-0.0506674
1.87382e-09
-0.0506674
1.7948e-09
-0.0506674
1.7141e-09
-0.0506674
1.63157e-09
-0.0506674
1.54709e-09
-0.0506674
1.46064e-09
-0.0506674
1.37231e-09
-0.0506674
1.28222e-09
-0.0506674
1.19046e-09
-0.0506674
1.09716e-09
-0.0506674
1.00233e-09
-0.0506674
9.0599e-10
-0.0506674