/*--------------------------------*- C++ -*----------------------------------*\
| =========                 |                                                 |
| \\      /  F ield         | OpenFOAM: The Open Source CFD Toolbox           |
|  \\    /   O peration     | Version:  2.3.x                                 |
|   \\  /    A nd           | Web:      www.OpenFOAM.org                      |
|    \\/     M anipulation  |                                                 |
\*---------------------------------------------------------------------------*/
FoamFile
{
    version     2.0;
    format      ascii;
    class       volVectorField;
    location    "0.1";
    object      U;
}
// * * * * * * * * * * * * * * * * * * * * * * * * * * * * * * * * * * * * * //

dimensions      [0 1 -1 0 0 0 0];

internalField   nonuniform List<vector> 
50000
(
(-6.37617e-10 -0.0496548 0)
(-8.90498e-10 -0.0496548 0)
(-3.51461e-10 -0.0496548 0)
(-8.22797e-11 -0.0496548 0)
(9.77873e-11 -0.0496548 0)
(2.41323e-10 -0.0496548 0)
(3.65363e-10 -0.0496548 0)
(4.7544e-10 -0.0496548 0)
(5.75664e-10 -0.0496548 0)
(6.70531e-10 -0.0496548 0)
(7.62893e-10 -0.0496548 0)
(8.53167e-10 -0.0496548 0)
(9.40395e-10 -0.0496548 0)
(1.02419e-09 -0.0496548 0)
(1.10495e-09 -0.0496548 0)
(1.18317e-09 -0.0496548 0)
(1.25931e-09 -0.0496548 0)
(1.33355e-09 -0.0496548 0)
(1.40581e-09 -0.0496548 0)
(1.47606e-09 -0.0496548 0)
(1.54437e-09 -0.0496548 0)
(1.61088e-09 -0.0496548 0)
(1.67564e-09 -0.0496548 0)
(1.73873e-09 -0.0496548 0)
(1.80018e-09 -0.0496548 0)
(1.8601e-09 -0.0496548 0)
(1.91854e-09 -0.0496548 0)
(1.97542e-09 -0.0496548 0)
(2.0308e-09 -0.0496548 0)
(2.08482e-09 -0.0496548 0)
(2.13737e-09 -0.0496548 0)
(2.18825e-09 -0.0496548 0)
(2.23757e-09 -0.0496548 0)
(2.28545e-09 -0.0496548 0)
(2.33161e-09 -0.0496548 0)
(2.3758e-09 -0.0496548 0)
(2.41818e-09 -0.0496548 0)
(2.45878e-09 -0.0496548 0)
(2.49727e-09 -0.0496548 0)
(2.53344e-09 -0.0496548 0)
(2.56743e-09 -0.0496548 0)
(2.59933e-09 -0.0496548 0)
(2.62891e-09 -0.0496548 0)
(2.65597e-09 -0.0496548 0)
(2.68061e-09 -0.0496548 0)
(2.70295e-09 -0.0496548 0)
(2.72289e-09 -0.0496548 0)
(2.74018e-09 -0.0496548 0)
(2.75473e-09 -0.0496548 0)
(2.76656e-09 -0.0496548 0)
(2.77563e-09 -0.0496548 0)
(2.78178e-09 -0.0496548 0)
(2.78481e-09 -0.0496548 0)
(2.78464e-09 -0.0496548 0)
(2.78131e-09 -0.0496548 0)
(2.77488e-09 -0.0496548 0)
(2.76533e-09 -0.0496548 0)
(2.75258e-09 -0.0496548 0)
(2.7366e-09 -0.0496548 0)
(2.71747e-09 -0.0496548 0)
(2.69531e-09 -0.0496548 0)
(2.67019e-09 -0.0496548 0)
(2.64214e-09 -0.0496548 0)
(2.61111e-09 -0.0496548 0)
(2.57712e-09 -0.0496548 0)
(2.54027e-09 -0.0496548 0)
(2.5007e-09 -0.0496548 0)
(2.4585e-09 -0.0496548 0)
(2.41374e-09 -0.0496548 0)
(2.36645e-09 -0.0496548 0)
(2.31665e-09 -0.0496548 0)
(2.26447e-09 -0.0496548 0)
(2.21002e-09 -0.0496548 0)
(2.15346e-09 -0.0496548 0)
(2.09486e-09 -0.0496548 0)
(2.03429e-09 -0.0496548 0)
(1.97179e-09 -0.0496548 0)
(1.90746e-09 -0.0496548 0)
(1.8414e-09 -0.0496548 0)
(1.77374e-09 -0.0496548 0)
(1.70461e-09 -0.0496548 0)
(1.63415e-09 -0.0496548 0)
(1.56247e-09 -0.0496548 0)
(1.48971e-09 -0.0496548 0)
(1.41599e-09 -0.0496548 0)
(1.34145e-09 -0.0496548 0)
(1.26627e-09 -0.0496548 0)
(1.19079e-09 -0.0496548 0)
(1.1155e-09 -0.0496548 0)
(1.04106e-09 -0.0496548 0)
(9.68234e-10 -0.0496548 0)
(8.97915e-10 -0.0496548 0)
(8.31415e-10 -0.0496548 0)
(7.71025e-10 -0.0496548 0)
(7.20942e-10 -0.0496548 0)
(6.89281e-10 -0.0496548 0)
(6.93857e-10 -0.0496548 0)
(7.87449e-10 -0.0496548 0)
(1.15167e-09 -0.0496548 0)
(7.24583e-10 -0.0496548 0)
(-1.18084e-11 -0.0496574 0)
(-9.65702e-11 -0.0496574 0)
(-1.14013e-10 -0.0496574 0)
(4.83483e-12 -0.0496574 0)
(1.36124e-10 -0.0496574 0)
(2.61108e-10 -0.0496574 0)
(3.77532e-10 -0.0496574 0)
(4.8393e-10 -0.0496574 0)
(5.81883e-10 -0.0496574 0)
(6.75277e-10 -0.0496574 0)
(7.66805e-10 -0.0496574 0)
(8.56613e-10 -0.0496574 0)
(9.43596e-10 -0.0496574 0)
(1.02721e-09 -0.0496574 0)
(1.10775e-09 -0.0496574 0)
(1.18583e-09 -0.0496574 0)
(1.26191e-09 -0.0496574 0)
(1.33601e-09 -0.0496574 0)
(1.40819e-09 -0.0496574 0)
(1.47836e-09 -0.0496574 0)
(1.5466e-09 -0.0496574 0)
(1.61306e-09 -0.0496574 0)
(1.6777e-09 -0.0496574 0)
(1.74076e-09 -0.0496574 0)
(1.80229e-09 -0.0496574 0)
(1.8621e-09 -0.0496574 0)
(1.92046e-09 -0.0496574 0)
(1.9775e-09 -0.0496574 0)
(2.03294e-09 -0.0496574 0)
(2.08687e-09 -0.0496574 0)
(2.13945e-09 -0.0496574 0)
(2.19052e-09 -0.0496574 0)
(2.23994e-09 -0.0496574 0)
(2.28777e-09 -0.0496574 0)
(2.33396e-09 -0.0496574 0)
(2.37833e-09 -0.0496574 0)
(2.42083e-09 -0.0496574 0)
(2.46141e-09 -0.0496574 0)
(2.49992e-09 -0.0496574 0)
(2.53623e-09 -0.0496574 0)
(2.57035e-09 -0.0496574 0)
(2.60225e-09 -0.0496574 0)
(2.63179e-09 -0.0496574 0)
(2.6589e-09 -0.0496574 0)
(2.68363e-09 -0.0496574 0)
(2.70603e-09 -0.0496574 0)
(2.72599e-09 -0.0496574 0)
(2.74332e-09 -0.0496574 0)
(2.75794e-09 -0.0496574 0)
(2.76988e-09 -0.0496574 0)
(2.77903e-09 -0.0496574 0)
(2.78522e-09 -0.0496574 0)
(2.78825e-09 -0.0496574 0)
(2.78807e-09 -0.0496574 0)
(2.78477e-09 -0.0496574 0)
(2.77837e-09 -0.0496574 0)
(2.76883e-09 -0.0496574 0)
(2.75604e-09 -0.0496574 0)
(2.73998e-09 -0.0496574 0)
(2.72078e-09 -0.0496574 0)
(2.69856e-09 -0.0496574 0)
(2.67339e-09 -0.0496574 0)
(2.64527e-09 -0.0496574 0)
(2.61414e-09 -0.0496574 0)
(2.58005e-09 -0.0496574 0)
(2.54311e-09 -0.0496574 0)
(2.50346e-09 -0.0496574 0)
(2.46122e-09 -0.0496574 0)
(2.4164e-09 -0.0496574 0)
(2.36903e-09 -0.0496574 0)
(2.31914e-09 -0.0496574 0)
(2.26684e-09 -0.0496574 0)
(2.21228e-09 -0.0496574 0)
(2.15561e-09 -0.0496574 0)
(2.09691e-09 -0.0496574 0)
(2.03623e-09 -0.0496574 0)
(1.97362e-09 -0.0496574 0)
(1.90915e-09 -0.0496574 0)
(1.84295e-09 -0.0496574 0)
(1.77515e-09 -0.0496574 0)
(1.70587e-09 -0.0496574 0)
(1.63526e-09 -0.0496574 0)
(1.56342e-09 -0.0496574 0)
(1.49049e-09 -0.0496574 0)
(1.41661e-09 -0.0496574 0)
(1.34186e-09 -0.0496574 0)
(1.2664e-09 -0.0496574 0)
(1.19048e-09 -0.0496574 0)
(1.1146e-09 -0.0496574 0)
(1.03939e-09 -0.0496574 0)
(9.65535e-10 -0.0496574 0)
(8.93701e-10 -0.0496574 0)
(8.24753e-10 -0.0496574 0)
(7.6002e-10 -0.0496574 0)
(7.01384e-10 -0.0496574 0)
(6.50771e-10 -0.0496574 0)
(6.07306e-10 -0.0496574 0)
(5.51285e-10 -0.0496574 0)
(3.58426e-10 -0.0496574 0)
(9.87928e-11 -0.0496574 0)
(-4.3197e-11 -0.0496632 0)
(-6.49228e-11 -0.0496632 0)
(-6.08349e-12 -0.0496632 0)
(8.12418e-11 -0.0496632 0)
(1.8287e-10 -0.0496632 0)
(2.89125e-10 -0.0496632 0)
(3.95233e-10 -0.0496632 0)
(4.97041e-10 -0.0496632 0)
(5.93143e-10 -0.0496632 0)
(6.85117e-10 -0.0496632 0)
(7.74936e-10 -0.0496632 0)
(8.63156e-10 -0.0496632 0)
(9.49169e-10 -0.0496632 0)
(1.03247e-09 -0.0496632 0)
(1.11296e-09 -0.0496632 0)
(1.19096e-09 -0.0496632 0)
(1.26691e-09 -0.0496632 0)
(1.34081e-09 -0.0496632 0)
(1.41281e-09 -0.0496632 0)
(1.48283e-09 -0.0496632 0)
(1.55084e-09 -0.0496632 0)
(1.61725e-09 -0.0496632 0)
(1.68188e-09 -0.0496632 0)
(1.74475e-09 -0.0496632 0)
(1.80621e-09 -0.0496632 0)
(1.8661e-09 -0.0496632 0)
(1.92446e-09 -0.0496632 0)
(1.98145e-09 -0.0496632 0)
(2.03696e-09 -0.0496632 0)
(2.09103e-09 -0.0496632 0)
(2.14371e-09 -0.0496632 0)
(2.19483e-09 -0.0496632 0)
(2.24435e-09 -0.0496632 0)
(2.29233e-09 -0.0496632 0)
(2.33868e-09 -0.0496632 0)
(2.38319e-09 -0.0496632 0)
(2.4258e-09 -0.0496632 0)
(2.46651e-09 -0.0496632 0)
(2.50519e-09 -0.0496632 0)
(2.54166e-09 -0.0496632 0)
(2.57588e-09 -0.0496632 0)
(2.60782e-09 -0.0496632 0)
(2.63745e-09 -0.0496632 0)
(2.66468e-09 -0.0496632 0)
(2.68953e-09 -0.0496632 0)
(2.712e-09 -0.0496632 0)
(2.73202e-09 -0.0496632 0)
(2.74947e-09 -0.0496632 0)
(2.76426e-09 -0.0496632 0)
(2.77634e-09 -0.0496632 0)
(2.78559e-09 -0.0496632 0)
(2.79181e-09 -0.0496632 0)
(2.79487e-09 -0.0496632 0)
(2.79474e-09 -0.0496632 0)
(2.7915e-09 -0.0496632 0)
(2.78513e-09 -0.0496632 0)
(2.77556e-09 -0.0496632 0)
(2.76269e-09 -0.0496632 0)
(2.74654e-09 -0.0496632 0)
(2.72723e-09 -0.0496632 0)
(2.7049e-09 -0.0496632 0)
(2.67962e-09 -0.0496632 0)
(2.65134e-09 -0.0496632 0)
(2.62006e-09 -0.0496632 0)
(2.5858e-09 -0.0496632 0)
(2.54872e-09 -0.0496632 0)
(2.50895e-09 -0.0496632 0)
(2.46658e-09 -0.0496632 0)
(2.42163e-09 -0.0496632 0)
(2.3741e-09 -0.0496632 0)
(2.32403e-09 -0.0496632 0)
(2.27152e-09 -0.0496632 0)
(2.21675e-09 -0.0496632 0)
(2.15986e-09 -0.0496632 0)
(2.10094e-09 -0.0496632 0)
(2.04004e-09 -0.0496632 0)
(1.97721e-09 -0.0496632 0)
(1.9125e-09 -0.0496632 0)
(1.84604e-09 -0.0496632 0)
(1.77795e-09 -0.0496632 0)
(1.70841e-09 -0.0496632 0)
(1.63753e-09 -0.0496632 0)
(1.56541e-09 -0.0496632 0)
(1.49214e-09 -0.0496632 0)
(1.41784e-09 -0.0496632 0)
(1.34264e-09 -0.0496632 0)
(1.26665e-09 -0.0496632 0)
(1.19006e-09 -0.0496632 0)
(1.11324e-09 -0.0496632 0)
(1.03667e-09 -0.0496632 0)
(9.60913e-10 -0.0496632 0)
(8.86432e-10 -0.0496632 0)
(8.13606e-10 -0.0496632 0)
(7.42737e-10 -0.0496632 0)
(6.73827e-10 -0.0496632 0)
(6.05668e-10 -0.0496632 0)
(5.33593e-10 -0.0496632 0)
(4.45646e-10 -0.0496632 0)
(3.27779e-10 -0.0496632 0)
(1.30408e-10 -0.0496632 0)
(2.62471e-12 -0.0496721 0)
(1.9735e-11 -0.0496721 0)
(6.68884e-11 -0.0496721 0)
(1.41092e-10 -0.0496721 0)
(2.27916e-10 -0.0496721 0)
(3.20507e-10 -0.0496721 0)
(4.1654e-10 -0.0496721 0)
(5.13013e-10 -0.0496721 0)
(6.07005e-10 -0.0496721 0)
(6.97734e-10 -0.0496721 0)
(7.85975e-10 -0.0496721 0)
(8.72561e-10 -0.0496721 0)
(9.57382e-10 -0.0496721 0)
(1.04008e-09 -0.0496721 0)
(1.12041e-09 -0.0496721 0)
(1.1983e-09 -0.0496721 0)
(1.27411e-09 -0.0496721 0)
(1.34778e-09 -0.0496721 0)
(1.41945e-09 -0.0496721 0)
(1.48936e-09 -0.0496721 0)
(1.55725e-09 -0.0496721 0)
(1.6234e-09 -0.0496721 0)
(1.68792e-09 -0.0496721 0)
(1.75079e-09 -0.0496721 0)
(1.81216e-09 -0.0496721 0)
(1.87198e-09 -0.0496721 0)
(1.93036e-09 -0.0496721 0)
(1.98742e-09 -0.0496721 0)
(2.04304e-09 -0.0496721 0)
(2.09719e-09 -0.0496721 0)
(2.14996e-09 -0.0496721 0)
(2.20123e-09 -0.0496721 0)
(2.25094e-09 -0.0496721 0)
(2.29911e-09 -0.0496721 0)
(2.34562e-09 -0.0496721 0)
(2.39029e-09 -0.0496721 0)
(2.43313e-09 -0.0496721 0)
(2.47411e-09 -0.0496721 0)
(2.51299e-09 -0.0496721 0)
(2.5496e-09 -0.0496721 0)
(2.58395e-09 -0.0496721 0)
(2.61607e-09 -0.0496721 0)
(2.64587e-09 -0.0496721 0)
(2.67323e-09 -0.0496721 0)
(2.69818e-09 -0.0496721 0)
(2.72076e-09 -0.0496721 0)
(2.74095e-09 -0.0496721 0)
(2.75861e-09 -0.0496721 0)
(2.77359e-09 -0.0496721 0)
(2.78581e-09 -0.0496721 0)
(2.79515e-09 -0.0496721 0)
(2.80146e-09 -0.0496721 0)
(2.80461e-09 -0.0496721 0)
(2.80459e-09 -0.0496721 0)
(2.8014e-09 -0.0496721 0)
(2.79503e-09 -0.0496721 0)
(2.78541e-09 -0.0496721 0)
(2.77246e-09 -0.0496721 0)
(2.7562e-09 -0.0496721 0)
(2.73675e-09 -0.0496721 0)
(2.71424e-09 -0.0496721 0)
(2.68876e-09 -0.0496721 0)
(2.66029e-09 -0.0496721 0)
(2.6288e-09 -0.0496721 0)
(2.59435e-09 -0.0496721 0)
(2.55706e-09 -0.0496721 0)
(2.51708e-09 -0.0496721 0)
(2.47451e-09 -0.0496721 0)
(2.42935e-09 -0.0496721 0)
(2.3816e-09 -0.0496721 0)
(2.33126e-09 -0.0496721 0)
(2.27846e-09 -0.0496721 0)
(2.22336e-09 -0.0496721 0)
(2.16615e-09 -0.0496721 0)
(2.10691e-09 -0.0496721 0)
(2.04571e-09 -0.0496721 0)
(1.98256e-09 -0.0496721 0)
(1.9175e-09 -0.0496721 0)
(1.85064e-09 -0.0496721 0)
(1.78214e-09 -0.0496721 0)
(1.71221e-09 -0.0496721 0)
(1.64098e-09 -0.0496721 0)
(1.5685e-09 -0.0496721 0)
(1.49477e-09 -0.0496721 0)
(1.41986e-09 -0.0496721 0)
(1.34389e-09 -0.0496721 0)
(1.26704e-09 -0.0496721 0)
(1.1895e-09 -0.0496721 0)
(1.11151e-09 -0.0496721 0)
(1.03334e-09 -0.0496721 0)
(9.55302e-10 -0.0496721 0)
(8.77681e-10 -0.0496721 0)
(8.00523e-10 -0.0496721 0)
(7.235e-10 -0.0496721 0)
(6.45701e-10 -0.0496721 0)
(5.65005e-10 -0.0496721 0)
(4.77049e-10 -0.0496721 0)
(3.73924e-10 -0.0496721 0)
(2.43725e-10 -0.0496721 0)
(8.49919e-11 -0.0496721 0)
(1.66091e-11 -0.0496841 0)
(5.63734e-11 -0.0496841 0)
(1.11564e-10 -0.0496841 0)
(1.83185e-10 -0.0496841 0)
(2.65146e-10 -0.0496841 0)
(3.51342e-10 -0.0496841 0)
(4.40289e-10 -0.0496841 0)
(5.31182e-10 -0.0496841 0)
(6.22122e-10 -0.0496841 0)
(7.11543e-10 -0.0496841 0)
(7.98841e-10 -0.0496841 0)
(8.84307e-10 -0.0496841 0)
(9.68072e-10 -0.0496841 0)
(1.05e-09 -0.0496841 0)
(1.12997e-09 -0.0496841 0)
(1.20761e-09 -0.0496841 0)
(1.28317e-09 -0.0496841 0)
(1.35674e-09 -0.0496841 0)
(1.4282e-09 -0.0496841 0)
(1.49778e-09 -0.0496841 0)
(1.56552e-09 -0.0496841 0)
(1.63157e-09 -0.0496841 0)
(1.69594e-09 -0.0496841 0)
(1.75868e-09 -0.0496841 0)
(1.81997e-09 -0.0496841 0)
(1.87979e-09 -0.0496841 0)
(1.93823e-09 -0.0496841 0)
(1.99536e-09 -0.0496841 0)
(2.05104e-09 -0.0496841 0)
(2.10531e-09 -0.0496841 0)
(2.15826e-09 -0.0496841 0)
(2.20973e-09 -0.0496841 0)
(2.25963e-09 -0.0496841 0)
(2.30798e-09 -0.0496841 0)
(2.35472e-09 -0.0496841 0)
(2.3997e-09 -0.0496841 0)
(2.44285e-09 -0.0496841 0)
(2.48407e-09 -0.0496841 0)
(2.52316e-09 -0.0496841 0)
(2.56e-09 -0.0496841 0)
(2.59459e-09 -0.0496841 0)
(2.62693e-09 -0.0496841 0)
(2.6569e-09 -0.0496841 0)
(2.68441e-09 -0.0496841 0)
(2.70951e-09 -0.0496841 0)
(2.73231e-09 -0.0496841 0)
(2.75273e-09 -0.0496841 0)
(2.77062e-09 -0.0496841 0)
(2.78579e-09 -0.0496841 0)
(2.79816e-09 -0.0496841 0)
(2.80765e-09 -0.0496841 0)
(2.81411e-09 -0.0496841 0)
(2.8174e-09 -0.0496841 0)
(2.81747e-09 -0.0496841 0)
(2.81432e-09 -0.0496841 0)
(2.80795e-09 -0.0496841 0)
(2.79829e-09 -0.0496841 0)
(2.78525e-09 -0.0496841 0)
(2.76884e-09 -0.0496841 0)
(2.74919e-09 -0.0496841 0)
(2.72646e-09 -0.0496841 0)
(2.70075e-09 -0.0496841 0)
(2.67204e-09 -0.0496841 0)
(2.64031e-09 -0.0496841 0)
(2.60559e-09 -0.0496841 0)
(2.56802e-09 -0.0496841 0)
(2.52778e-09 -0.0496841 0)
(2.48495e-09 -0.0496841 0)
(2.43953e-09 -0.0496841 0)
(2.39146e-09 -0.0496841 0)
(2.34076e-09 -0.0496841 0)
(2.28756e-09 -0.0496841 0)
(2.23206e-09 -0.0496841 0)
(2.17445e-09 -0.0496841 0)
(2.11482e-09 -0.0496841 0)
(2.05322e-09 -0.0496841 0)
(1.98964e-09 -0.0496841 0)
(1.92411e-09 -0.0496841 0)
(1.85675e-09 -0.0496841 0)
(1.78776e-09 -0.0496841 0)
(1.71732e-09 -0.0496841 0)
(1.64559e-09 -0.0496841 0)
(1.57262e-09 -0.0496841 0)
(1.49836e-09 -0.0496841 0)
(1.42276e-09 -0.0496841 0)
(1.34587e-09 -0.0496841 0)
(1.2679e-09 -0.0496841 0)
(1.18908e-09 -0.0496841 0)
(1.10965e-09 -0.0496841 0)
(1.02973e-09 -0.0496841 0)
(9.49417e-10 -0.0496841 0)
(8.68719e-10 -0.0496841 0)
(7.8749e-10 -0.0496841 0)
(7.05207e-10 -0.0496841 0)
(6.20793e-10 -0.0496841 0)
(5.32311e-10 -0.0496841 0)
(4.36715e-10 -0.0496841 0)
(3.29953e-10 -0.0496841 0)
(2.08301e-10 -0.0496841 0)
(7.16968e-11 -0.0496841 0)
(2.67741e-11 -0.0496993 0)
(8.17782e-11 -0.0496993 0)
(1.42494e-10 -0.0496993 0)
(2.13427e-10 -0.0496993 0)
(2.93533e-10 -0.0496993 0)
(3.77772e-10 -0.0496993 0)
(4.63628e-10 -0.0496993 0)
(5.50828e-10 -0.0496993 0)
(6.38777e-10 -0.0496993 0)
(7.26411e-10 -0.0496993 0)
(8.1276e-10 -0.0496993 0)
(8.9753e-10 -0.0496993 0)
(9.8067e-10 -0.0496993 0)
(1.06193e-09 -0.0496993 0)
(1.14137e-09 -0.0496993 0)
(1.21882e-09 -0.0496993 0)
(1.29416e-09 -0.0496993 0)
(1.36743e-09 -0.0496993 0)
(1.43872e-09 -0.0496993 0)
(1.50813e-09 -0.0496993 0)
(1.57568e-09 -0.0496993 0)
(1.64157e-09 -0.0496993 0)
(1.70577e-09 -0.0496993 0)
(1.76841e-09 -0.0496993 0)
(1.82969e-09 -0.0496993 0)
(1.88952e-09 -0.0496993 0)
(1.94798e-09 -0.0496993 0)
(2.00517e-09 -0.0496993 0)
(2.06097e-09 -0.0496993 0)
(2.11543e-09 -0.0496993 0)
(2.16857e-09 -0.0496993 0)
(2.22022e-09 -0.0496993 0)
(2.27032e-09 -0.0496993 0)
(2.31896e-09 -0.0496993 0)
(2.36604e-09 -0.0496993 0)
(2.41134e-09 -0.0496993 0)
(2.45479e-09 -0.0496993 0)
(2.49631e-09 -0.0496993 0)
(2.53571e-09 -0.0496993 0)
(2.57285e-09 -0.0496993 0)
(2.60772e-09 -0.0496993 0)
(2.6403e-09 -0.0496993 0)
(2.67046e-09 -0.0496993 0)
(2.69816e-09 -0.0496993 0)
(2.72351e-09 -0.0496993 0)
(2.74657e-09 -0.0496993 0)
(2.76726e-09 -0.0496993 0)
(2.78538e-09 -0.0496993 0)
(2.80076e-09 -0.0496993 0)
(2.81333e-09 -0.0496993 0)
(2.82302e-09 -0.0496993 0)
(2.82967e-09 -0.0496993 0)
(2.83311e-09 -0.0496993 0)
(2.83327e-09 -0.0496993 0)
(2.83017e-09 -0.0496993 0)
(2.82381e-09 -0.0496993 0)
(2.8141e-09 -0.0496993 0)
(2.80094e-09 -0.0496993 0)
(2.78434e-09 -0.0496993 0)
(2.76446e-09 -0.0496993 0)
(2.74148e-09 -0.0496993 0)
(2.71551e-09 -0.0496993 0)
(2.68652e-09 -0.0496993 0)
(2.65448e-09 -0.0496993 0)
(2.61943e-09 -0.0496993 0)
(2.58154e-09 -0.0496993 0)
(2.54098e-09 -0.0496993 0)
(2.49784e-09 -0.0496993 0)
(2.45207e-09 -0.0496993 0)
(2.40361e-09 -0.0496993 0)
(2.35246e-09 -0.0496993 0)
(2.29879e-09 -0.0496993 0)
(2.24281e-09 -0.0496993 0)
(2.18473e-09 -0.0496993 0)
(2.12465e-09 -0.0496993 0)
(2.06255e-09 -0.0496993 0)
(1.99842e-09 -0.0496993 0)
(1.93231e-09 -0.0496993 0)
(1.86437e-09 -0.0496993 0)
(1.79481e-09 -0.0496993 0)
(1.7238e-09 -0.0496993 0)
(1.65147e-09 -0.0496993 0)
(1.57783e-09 -0.0496993 0)
(1.50285e-09 -0.0496993 0)
(1.42645e-09 -0.0496993 0)
(1.34863e-09 -0.0496993 0)
(1.2695e-09 -0.0496993 0)
(1.18928e-09 -0.0496993 0)
(1.10821e-09 -0.0496993 0)
(1.02641e-09 -0.0496993 0)
(9.43852e-10 -0.0496993 0)
(8.60371e-10 -0.0496993 0)
(7.75692e-10 -0.0496993 0)
(6.89292e-10 -0.0496993 0)
(6.00294e-10 -0.0496993 0)
(5.0732e-10 -0.0496993 0)
(4.08495e-10 -0.0496993 0)
(3.01907e-10 -0.0496993 0)
(1.86379e-10 -0.0496993 0)
(6.31497e-11 -0.0496993 0)
(3.33535e-11 -0.0497175 0)
(9.91172e-11 -0.0497175 0)
(1.65696e-10 -0.0497175 0)
(2.37484e-10 -0.0497175 0)
(3.16175e-10 -0.0497175 0)
(3.99536e-10 -0.0497175 0)
(4.84574e-10 -0.0497175 0)
(5.70252e-10 -0.0497175 0)
(6.56301e-10 -0.0497175 0)
(7.42379e-10 -0.0497175 0)
(8.27802e-10 -0.0497175 0)
(9.11895e-10 -0.0497175 0)
(9.94528e-10 -0.0497175 0)
(1.07548e-09 -0.0497175 0)
(1.15455e-09 -0.0497175 0)
(1.23168e-09 -0.0497175 0)
(1.30681e-09 -0.0497175 0)
(1.37987e-09 -0.0497175 0)
(1.45099e-09 -0.0497175 0)
(1.52025e-09 -0.0497175 0)
(1.58759e-09 -0.0497175 0)
(1.65331e-09 -0.0497175 0)
(1.71742e-09 -0.0497175 0)
(1.77999e-09 -0.0497175 0)
(1.84124e-09 -0.0497175 0)
(1.90106e-09 -0.0497175 0)
(1.95955e-09 -0.0497175 0)
(2.01687e-09 -0.0497175 0)
(2.07284e-09 -0.0497175 0)
(2.12746e-09 -0.0497175 0)
(2.18078e-09 -0.0497175 0)
(2.23266e-09 -0.0497175 0)
(2.28307e-09 -0.0497175 0)
(2.33206e-09 -0.0497175 0)
(2.37948e-09 -0.0497175 0)
(2.42513e-09 -0.0497175 0)
(2.46893e-09 -0.0497175 0)
(2.51082e-09 -0.0497175 0)
(2.5506e-09 -0.0497175 0)
(2.58808e-09 -0.0497175 0)
(2.62324e-09 -0.0497175 0)
(2.65607e-09 -0.0497175 0)
(2.68649e-09 -0.0497175 0)
(2.71447e-09 -0.0497175 0)
(2.74011e-09 -0.0497175 0)
(2.76346e-09 -0.0497175 0)
(2.78443e-09 -0.0497175 0)
(2.80281e-09 -0.0497175 0)
(2.81844e-09 -0.0497175 0)
(2.83126e-09 -0.0497175 0)
(2.84118e-09 -0.0497175 0)
(2.84802e-09 -0.0497175 0)
(2.85161e-09 -0.0497175 0)
(2.85188e-09 -0.0497175 0)
(2.84886e-09 -0.0497175 0)
(2.84251e-09 -0.0497175 0)
(2.83273e-09 -0.0497175 0)
(2.81942e-09 -0.0497175 0)
(2.80261e-09 -0.0497175 0)
(2.78247e-09 -0.0497175 0)
(2.75922e-09 -0.0497175 0)
(2.73295e-09 -0.0497175 0)
(2.70362e-09 -0.0497175 0)
(2.67121e-09 -0.0497175 0)
(2.63579e-09 -0.0497175 0)
(2.59754e-09 -0.0497175 0)
(2.55663e-09 -0.0497175 0)
(2.51312e-09 -0.0497175 0)
(2.46692e-09 -0.0497175 0)
(2.41797e-09 -0.0497175 0)
(2.3663e-09 -0.0497175 0)
(2.3121e-09 -0.0497175 0)
(2.2556e-09 -0.0497175 0)
(2.19698e-09 -0.0497175 0)
(2.13634e-09 -0.0497175 0)
(2.07364e-09 -0.0497175 0)
(2.00887e-09 -0.0497175 0)
(1.94209e-09 -0.0497175 0)
(1.87348e-09 -0.0497175 0)
(1.80328e-09 -0.0497175 0)
(1.73165e-09 -0.0497175 0)
(1.65866e-09 -0.0497175 0)
(1.58426e-09 -0.0497175 0)
(1.50839e-09 -0.0497175 0)
(1.43101e-09 -0.0497175 0)
(1.35214e-09 -0.0497175 0)
(1.27184e-09 -0.0497175 0)
(1.19027e-09 -0.0497175 0)
(1.10759e-09 -0.0497175 0)
(1.02392e-09 -0.0497175 0)
(9.39215e-10 -0.0497175 0)
(8.53273e-10 -0.0497175 0)
(7.65781e-10 -0.0497175 0)
(6.76292e-10 -0.0497175 0)
(5.84201e-10 -0.0497175 0)
(4.88701e-10 -0.0497175 0)
(3.8877e-10 -0.0497175 0)
(2.83592e-10 -0.0497175 0)
(1.73012e-10 -0.0497175 0)
(5.81977e-11 -0.0497175 0)
(3.65594e-11 -0.0497389 0)
(1.0919e-10 -0.0497389 0)
(1.82227e-10 -0.0497389 0)
(2.57259e-10 -0.0497389 0)
(3.35853e-10 -0.0497389 0)
(4.184e-10 -0.0497389 0)
(5.03045e-10 -0.0497389 0)
(5.8841e-10 -0.0497389 0)
(6.73831e-10 -0.0497389 0)
(7.58986e-10 -0.0497389 0)
(8.43662e-10 -0.0497389 0)
(9.27325e-10 -0.0497389 0)
(1.0096e-09 -0.0497389 0)
(1.09028e-09 -0.0497389 0)
(1.16915e-09 -0.0497389 0)
(1.24604e-09 -0.0497389 0)
(1.32102e-09 -0.0497389 0)
(1.39394e-09 -0.0497389 0)
(1.46489e-09 -0.0497389 0)
(1.53397e-09 -0.0497389 0)
(1.60118e-09 -0.0497389 0)
(1.66678e-09 -0.0497389 0)
(1.73081e-09 -0.0497389 0)
(1.79331e-09 -0.0497389 0)
(1.85452e-09 -0.0497389 0)
(1.91438e-09 -0.0497389 0)
(1.97298e-09 -0.0497389 0)
(2.03042e-09 -0.0497389 0)
(2.08653e-09 -0.0497389 0)
(2.14133e-09 -0.0497389 0)
(2.19489e-09 -0.0497389 0)
(2.24707e-09 -0.0497389 0)
(2.29782e-09 -0.0497389 0)
(2.34717e-09 -0.0497389 0)
(2.39497e-09 -0.0497389 0)
(2.44102e-09 -0.0497389 0)
(2.48525e-09 -0.0497389 0)
(2.52757e-09 -0.0497389 0)
(2.56775e-09 -0.0497389 0)
(2.60559e-09 -0.0497389 0)
(2.64108e-09 -0.0497389 0)
(2.67422e-09 -0.0497389 0)
(2.70495e-09 -0.0497389 0)
(2.73326e-09 -0.0497389 0)
(2.75921e-09 -0.0497389 0)
(2.78288e-09 -0.0497389 0)
(2.80415e-09 -0.0497389 0)
(2.82284e-09 -0.0497389 0)
(2.83877e-09 -0.0497389 0)
(2.85186e-09 -0.0497389 0)
(2.86201e-09 -0.0497389 0)
(2.86906e-09 -0.0497389 0)
(2.87283e-09 -0.0497389 0)
(2.87325e-09 -0.0497389 0)
(2.8703e-09 -0.0497389 0)
(2.86394e-09 -0.0497389 0)
(2.85406e-09 -0.0497389 0)
(2.84058e-09 -0.0497389 0)
(2.82355e-09 -0.0497389 0)
(2.80316e-09 -0.0497389 0)
(2.7796e-09 -0.0497389 0)
(2.75297e-09 -0.0497389 0)
(2.72325e-09 -0.0497389 0)
(2.69044e-09 -0.0497389 0)
(2.65462e-09 -0.0497389 0)
(2.61598e-09 -0.0497389 0)
(2.57466e-09 -0.0497389 0)
(2.53069e-09 -0.0497389 0)
(2.48398e-09 -0.0497389 0)
(2.43448e-09 -0.0497389 0)
(2.38225e-09 -0.0497389 0)
(2.32746e-09 -0.0497389 0)
(2.27037e-09 -0.0497389 0)
(2.21114e-09 -0.0497389 0)
(2.14985e-09 -0.0497389 0)
(2.08647e-09 -0.0497389 0)
(2.02098e-09 -0.0497389 0)
(1.95347e-09 -0.0497389 0)
(1.88412e-09 -0.0497389 0)
(1.81318e-09 -0.0497389 0)
(1.74083e-09 -0.0497389 0)
(1.6671e-09 -0.0497389 0)
(1.5919e-09 -0.0497389 0)
(1.5151e-09 -0.0497389 0)
(1.43665e-09 -0.0497389 0)
(1.35659e-09 -0.0497389 0)
(1.27503e-09 -0.0497389 0)
(1.19211e-09 -0.0497389 0)
(1.10792e-09 -0.0497389 0)
(1.02251e-09 -0.0497389 0)
(9.35851e-10 -0.0497389 0)
(8.47767e-10 -0.0497389 0)
(7.58002e-10 -0.0497389 0)
(6.66229e-10 -0.0497389 0)
(5.72069e-10 -0.0497389 0)
(4.75141e-10 -0.0497389 0)
(3.74994e-10 -0.0497389 0)
(2.71362e-10 -0.0497389 0)
(1.64418e-10 -0.0497389 0)
(5.50802e-11 -0.0497389 0)
(3.77096e-11 -0.0497634 0)
(1.14369e-10 -0.0497633 0)
(1.93092e-10 -0.0497633 0)
(2.72587e-10 -0.0497633 0)
(3.52989e-10 -0.0497633 0)
(4.35667e-10 -0.0497633 0)
(5.20167e-10 -0.0497633 0)
(6.05427e-10 -0.0497633 0)
(6.90794e-10 -0.0497633 0)
(7.75791e-10 -0.0497633 0)
(8.60143e-10 -0.0497633 0)
(9.43567e-10 -0.0497633 0)
(1.02566e-09 -0.0497633 0)
(1.10619e-09 -0.0497633 0)
(1.18498e-09 -0.0497633 0)
(1.26179e-09 -0.0497633 0)
(1.33665e-09 -0.0497633 0)
(1.40946e-09 -0.0497633 0)
(1.48029e-09 -0.0497633 0)
(1.54927e-09 -0.0497633 0)
(1.61639e-09 -0.0497633 0)
(1.6819e-09 -0.0497633 0)
(1.74583e-09 -0.0497633 0)
(1.8083e-09 -0.0497633 0)
(1.86954e-09 -0.0497633 0)
(1.92946e-09 -0.0497633 0)
(1.98816e-09 -0.0497633 0)
(2.04573e-09 -0.0497633 0)
(2.10201e-09 -0.0497633 0)
(2.15704e-09 -0.0497633 0)
(2.21088e-09 -0.0497633 0)
(2.2634e-09 -0.0497633 0)
(2.3145e-09 -0.0497633 0)
(2.36424e-09 -0.0497633 0)
(2.41248e-09 -0.0497633 0)
(2.459e-09 -0.0497633 0)
(2.50371e-09 -0.0497633 0)
(2.54649e-09 -0.0497633 0)
(2.58709e-09 -0.0497633 0)
(2.62532e-09 -0.0497633 0)
(2.66118e-09 -0.0497633 0)
(2.6947e-09 -0.0497633 0)
(2.7258e-09 -0.0497633 0)
(2.75445e-09 -0.0497633 0)
(2.78074e-09 -0.0497633 0)
(2.80476e-09 -0.0497633 0)
(2.82639e-09 -0.0497633 0)
(2.84541e-09 -0.0497633 0)
(2.86165e-09 -0.0497633 0)
(2.87502e-09 -0.0497633 0)
(2.88543e-09 -0.0497633 0)
(2.89273e-09 -0.0497633 0)
(2.89671e-09 -0.0497633 0)
(2.89727e-09 -0.0497633 0)
(2.89438e-09 -0.0497633 0)
(2.88799e-09 -0.0497633 0)
(2.87801e-09 -0.0497633 0)
(2.86437e-09 -0.0497633 0)
(2.84711e-09 -0.0497633 0)
(2.82642e-09 -0.0497633 0)
(2.80251e-09 -0.0497633 0)
(2.77548e-09 -0.0497633 0)
(2.74533e-09 -0.0497633 0)
(2.71209e-09 -0.0497633 0)
(2.67585e-09 -0.0497633 0)
(2.63677e-09 -0.0497633 0)
(2.59498e-09 -0.0497633 0)
(2.55049e-09 -0.0497633 0)
(2.50321e-09 -0.0497633 0)
(2.45311e-09 -0.0497633 0)
(2.40025e-09 -0.0497633 0)
(2.34483e-09 -0.0497633 0)
(2.28709e-09 -0.0497633 0)
(2.22718e-09 -0.0497633 0)
(2.16516e-09 -0.0497633 0)
(2.10101e-09 -0.0497633 0)
(2.03473e-09 -0.0497633 0)
(1.96643e-09 -0.0497633 0)
(1.8963e-09 -0.0497633 0)
(1.82457e-09 -0.0497633 0)
(1.75139e-09 -0.0497633 0)
(1.6768e-09 -0.0497633 0)
(1.60071e-09 -0.0497633 0)
(1.52294e-09 -0.0497633 0)
(1.44341e-09 -0.0497633 0)
(1.36215e-09 -0.0497633 0)
(1.27929e-09 -0.0497633 0)
(1.19499e-09 -0.0497633 0)
(1.10933e-09 -0.0497633 0)
(1.02232e-09 -0.0497633 0)
(9.33906e-10 -0.0497633 0)
(8.43971e-10 -0.0497633 0)
(7.52337e-10 -0.0497633 0)
(6.58828e-10 -0.0497633 0)
(5.63253e-10 -0.0497633 0)
(4.65498e-10 -0.0497633 0)
(3.65452e-10 -0.0497633 0)
(2.63123e-10 -0.0497633 0)
(1.58766e-10 -0.0497633 0)
(5.30573e-11 -0.0497633 0)
(3.8976e-11 -0.0497909 0)
(1.18676e-10 -0.0497909 0)
(2.00979e-10 -0.0497909 0)
(2.84229e-10 -0.0497909 0)
(3.67487e-10 -0.0497909 0)
(4.51384e-10 -0.0497909 0)
(5.36338e-10 -0.0497909 0)
(6.21834e-10 -0.0497909 0)
(7.07394e-10 -0.0497909 0)
(7.92584e-10 -0.0497909 0)
(8.76996e-10 -0.0497909 0)
(9.60421e-10 -0.0497909 0)
(1.04255e-09 -0.0497909 0)
(1.12311e-09 -0.0497909 0)
(1.20192e-09 -0.0497909 0)
(1.27872e-09 -0.0497909 0)
(1.35355e-09 -0.0497909 0)
(1.42634e-09 -0.0497909 0)
(1.49714e-09 -0.0497909 0)
(1.56606e-09 -0.0497909 0)
(1.63309e-09 -0.0497909 0)
(1.69855e-09 -0.0497909 0)
(1.76246e-09 -0.0497909 0)
(1.82494e-09 -0.0497909 0)
(1.88623e-09 -0.0497909 0)
(1.94623e-09 -0.0497909 0)
(2.00503e-09 -0.0497909 0)
(2.06276e-09 -0.0497909 0)
(2.11925e-09 -0.0497909 0)
(2.17454e-09 -0.0497909 0)
(2.22871e-09 -0.0497909 0)
(2.28157e-09 -0.0497909 0)
(2.33306e-09 -0.0497909 0)
(2.38325e-09 -0.0497909 0)
(2.43199e-09 -0.0497909 0)
(2.47901e-09 -0.0497909 0)
(2.52422e-09 -0.0497909 0)
(2.56748e-09 -0.0497909 0)
(2.60854e-09 -0.0497909 0)
(2.64723e-09 -0.0497909 0)
(2.68353e-09 -0.0497909 0)
(2.71745e-09 -0.0497909 0)
(2.74893e-09 -0.0497909 0)
(2.77796e-09 -0.0497909 0)
(2.80464e-09 -0.0497909 0)
(2.82905e-09 -0.0497909 0)
(2.85106e-09 -0.0497909 0)
(2.87043e-09 -0.0497909 0)
(2.88699e-09 -0.0497909 0)
(2.90066e-09 -0.0497909 0)
(2.91138e-09 -0.0497909 0)
(2.91895e-09 -0.0497909 0)
(2.92315e-09 -0.0497909 0)
(2.92385e-09 -0.0497909 0)
(2.921e-09 -0.0497909 0)
(2.91459e-09 -0.0497909 0)
(2.90451e-09 -0.0497909 0)
(2.8907e-09 -0.0497909 0)
(2.87319e-09 -0.0497909 0)
(2.85217e-09 -0.0497909 0)
(2.82786e-09 -0.0497909 0)
(2.8004e-09 -0.0497909 0)
(2.76981e-09 -0.0497909 0)
(2.73612e-09 -0.0497909 0)
(2.69942e-09 -0.0497909 0)
(2.65985e-09 -0.0497909 0)
(2.61752e-09 -0.0497909 0)
(2.57244e-09 -0.0497909 0)
(2.52454e-09 -0.0497909 0)
(2.47379e-09 -0.0497909 0)
(2.42027e-09 -0.0497909 0)
(2.36417e-09 -0.0497909 0)
(2.30571e-09 -0.0497909 0)
(2.24505e-09 -0.0497909 0)
(2.18223e-09 -0.0497909 0)
(2.11723e-09 -0.0497909 0)
(2.0501e-09 -0.0497909 0)
(1.98095e-09 -0.0497909 0)
(1.91e-09 -0.0497909 0)
(1.83743e-09 -0.0497909 0)
(1.76337e-09 -0.0497909 0)
(1.68783e-09 -0.0497909 0)
(1.61073e-09 -0.0497909 0)
(1.53191e-09 -0.0497909 0)
(1.45128e-09 -0.0497909 0)
(1.36885e-09 -0.0497909 0)
(1.2847e-09 -0.0497909 0)
(1.19903e-09 -0.0497909 0)
(1.11193e-09 -0.0497909 0)
(1.02341e-09 -0.0497909 0)
(9.33422e-10 -0.0497909 0)
(8.41875e-10 -0.0497909 0)
(7.48674e-10 -0.0497909 0)
(6.53772e-10 -0.0497909 0)
(5.5714e-10 -0.0497909 0)
(4.58839e-10 -0.0497909 0)
(3.58951e-10 -0.0497909 0)
(2.57599e-10 -0.0497909 0)
(1.55024e-10 -0.0497909 0)
(5.17265e-11 -0.0497909 0)
(4.10814e-11 -0.0498216 0)
(1.24122e-10 -0.0498216 0)
(2.08561e-10 -0.0498216 0)
(2.94042e-10 -0.0498216 0)
(3.79834e-10 -0.0498216 0)
(4.65545e-10 -0.0498216 0)
(5.51558e-10 -0.0498216 0)
(6.37758e-10 -0.0498216 0)
(7.23796e-10 -0.0498216 0)
(8.09361e-10 -0.0498216 0)
(8.94103e-10 -0.0498216 0)
(9.77799e-10 -0.0498216 0)
(1.06016e-09 -0.0498216 0)
(1.1409e-09 -0.0498216 0)
(1.21982e-09 -0.0498216 0)
(1.29674e-09 -0.0498216 0)
(1.37168e-09 -0.0498216 0)
(1.44451e-09 -0.0498216 0)
(1.51532e-09 -0.0498216 0)
(1.58422e-09 -0.0498216 0)
(1.65125e-09 -0.0498216 0)
(1.7167e-09 -0.0498216 0)
(1.78064e-09 -0.0498216 0)
(1.84317e-09 -0.0498216 0)
(1.90452e-09 -0.0498216 0)
(1.9646e-09 -0.0498216 0)
(2.02355e-09 -0.0498216 0)
(2.08147e-09 -0.0498216 0)
(2.13822e-09 -0.0498216 0)
(2.19379e-09 -0.0498216 0)
(2.24828e-09 -0.0498216 0)
(2.30152e-09 -0.0498216 0)
(2.35347e-09 -0.0498216 0)
(2.40417e-09 -0.0498216 0)
(2.45344e-09 -0.0498216 0)
(2.501e-09 -0.0498216 0)
(2.54673e-09 -0.0498216 0)
(2.59051e-09 -0.0498216 0)
(2.6321e-09 -0.0498216 0)
(2.67128e-09 -0.0498216 0)
(2.70803e-09 -0.0498216 0)
(2.74238e-09 -0.0498216 0)
(2.77428e-09 -0.0498216 0)
(2.80374e-09 -0.0498216 0)
(2.83086e-09 -0.0498216 0)
(2.85569e-09 -0.0498216 0)
(2.87808e-09 -0.0498216 0)
(2.89781e-09 -0.0498216 0)
(2.91471e-09 -0.0498216 0)
(2.92873e-09 -0.0498216 0)
(2.93979e-09 -0.0498216 0)
(2.94765e-09 -0.0498216 0)
(2.95206e-09 -0.0498216 0)
(2.95289e-09 -0.0498216 0)
(2.95009e-09 -0.0498216 0)
(2.94366e-09 -0.0498216 0)
(2.93349e-09 -0.0498216 0)
(2.91949e-09 -0.0498216 0)
(2.9017e-09 -0.0498216 0)
(2.88031e-09 -0.0498216 0)
(2.85558e-09 -0.0498216 0)
(2.82767e-09 -0.0498216 0)
(2.79662e-09 -0.0498216 0)
(2.76245e-09 -0.0498216 0)
(2.72525e-09 -0.0498216 0)
(2.68514e-09 -0.0498216 0)
(2.64221e-09 -0.0498216 0)
(2.59649e-09 -0.0498216 0)
(2.54792e-09 -0.0498216 0)
(2.49649e-09 -0.0498216 0)
(2.44227e-09 -0.0498216 0)
(2.38543e-09 -0.0498216 0)
(2.32618e-09 -0.0498216 0)
(2.26469e-09 -0.0498216 0)
(2.20101e-09 -0.0498216 0)
(2.13513e-09 -0.0498216 0)
(2.06709e-09 -0.0498216 0)
(1.99704e-09 -0.0498216 0)
(1.92518e-09 -0.0498216 0)
(1.85171e-09 -0.0498216 0)
(1.77673e-09 -0.0498216 0)
(1.7002e-09 -0.0498216 0)
(1.62204e-09 -0.0498216 0)