/*--------------------------------*- C++ -*----------------------------------*\
| =========                 |                                                 |
| \\      /  F ield         | OpenFOAM: The Open Source CFD Toolbox           |
|  \\    /   O peration     | Version:  2.3.x                                 |
|   \\  /    A nd           | Web:      www.OpenFOAM.org                      |
|    \\/     M anipulation  |                                                 |
\*---------------------------------------------------------------------------*/
FoamFile
{
    version     2.0;
    format      ascii;
    class       volScalarField;
    location    "0.02";
    object      c;
}
// * * * * * * * * * * * * * * * * * * * * * * * * * * * * * * * * * * * * * //

dimensions      [0 0 0 0 0 0 0];

internalField   nonuniform List<scalar> 
50000
(
6.83653e-08
6.83652e-08
6.83652e-08
6.83651e-08
6.83651e-08
6.83651e-08
6.83651e-08
6.83651e-08
6.83651e-08
6.83651e-08
6.83651e-08
6.83651e-08
6.83651e-08
6.83651e-08
6.83651e-08
6.83651e-08
6.83651e-08
6.83651e-08
6.83652e-08
6.83651e-08
6.83652e-08
6.83652e-08
6.83653e-08
6.83654e-08
6.83653e-08
6.83654e-08
6.83656e-08
6.83654e-08
6.83655e-08
6.83658e-08
6.83657e-08
6.83656e-08
6.83658e-08
6.8366e-08
6.8366e-08
6.8366e-08
6.83662e-08
6.83664e-08
6.83663e-08
6.83664e-08
6.83666e-08
6.83668e-08
6.83668e-08
6.83668e-08
6.8367e-08
6.83672e-08
6.83673e-08
6.83674e-08
6.83675e-08
6.83677e-08
6.83679e-08
6.8368e-08
6.83681e-08
6.83682e-08
6.83684e-08
6.83686e-08
6.83687e-08
6.83689e-08
6.8369e-08
6.83692e-08
6.83693e-08
6.83695e-08
6.83697e-08
6.83698e-08
6.837e-08
6.83701e-08
6.83703e-08
6.83705e-08
6.83707e-08
6.83708e-08
6.8371e-08
6.83711e-08
6.83713e-08
6.83715e-08
6.83717e-08
6.83718e-08
6.8372e-08
6.83721e-08
6.83723e-08
6.83725e-08
6.83726e-08
6.83728e-08
6.83729e-08
6.83731e-08
6.83732e-08
6.83733e-08
6.83735e-08
6.83736e-08
6.83738e-08
6.83739e-08
6.8374e-08
6.83741e-08
6.83742e-08
6.83743e-08
6.83744e-08
6.83745e-08
6.83746e-08
6.83747e-08
6.83747e-08
6.83748e-08
2.052e-07
2.052e-07
2.052e-07
2.05199e-07
2.05199e-07
2.05199e-07
2.05199e-07
2.05199e-07
2.05199e-07
2.05199e-07
2.05199e-07
2.05199e-07
2.05199e-07
2.05199e-07
2.05199e-07
2.05199e-07
2.05199e-07
2.05199e-07
2.052e-07
2.052e-07
2.052e-07
2.052e-07
2.052e-07
2.052e-07
2.052e-07
2.052e-07
2.05201e-07
2.05201e-07
2.05201e-07
2.05201e-07
2.05201e-07
2.05201e-07
2.05202e-07
2.05202e-07
2.05202e-07
2.05202e-07
2.05203e-07
2.05203e-07
2.05203e-07
2.05203e-07
2.05204e-07
2.05204e-07
2.05204e-07
2.05205e-07
2.05205e-07
2.05206e-07
2.05206e-07
2.05206e-07
2.05207e-07
2.05207e-07
2.05208e-07
2.05208e-07
2.05208e-07
2.05209e-07
2.05209e-07
2.0521e-07
2.0521e-07
2.05211e-07
2.05211e-07
2.05212e-07
2.05212e-07
2.05213e-07
2.05213e-07
2.05214e-07
2.05214e-07
2.05215e-07
2.05215e-07
2.05216e-07
2.05216e-07
2.05217e-07
2.05217e-07
2.05218e-07
2.05218e-07
2.05219e-07
2.05219e-07
2.0522e-07
2.0522e-07
2.0522e-07
2.05221e-07
2.05221e-07
2.05222e-07
2.05222e-07
2.05223e-07
2.05223e-07
2.05224e-07
2.05224e-07
2.05225e-07
2.05225e-07
2.05225e-07
2.05226e-07
2.05226e-07
2.05226e-07
2.05227e-07
2.05227e-07
2.05227e-07
2.05228e-07
2.05228e-07
2.05228e-07
2.05228e-07
2.05228e-07
3.42347e-07
3.42346e-07
3.42347e-07
3.42346e-07
3.42346e-07
3.42346e-07
3.42346e-07
3.42346e-07
3.42346e-07
3.42346e-07
3.42346e-07
3.42346e-07
3.42346e-07
3.42346e-07
3.42346e-07
3.42346e-07
3.42346e-07
3.42346e-07
3.42346e-07
3.42346e-07
3.42347e-07
3.42347e-07
3.42347e-07
3.42347e-07
3.42348e-07
3.42348e-07
3.42348e-07
3.42348e-07
3.42348e-07
3.42349e-07
3.42349e-07
3.42349e-07
3.4235e-07
3.4235e-07
3.42351e-07
3.42351e-07
3.42351e-07
3.42352e-07
3.42352e-07
3.42353e-07
3.42353e-07
3.42354e-07
3.42354e-07
3.42355e-07
3.42356e-07
3.42356e-07
3.42357e-07
3.42358e-07
3.42358e-07
3.42359e-07
3.4236e-07
3.4236e-07
3.42361e-07
3.42362e-07
3.42363e-07
3.42363e-07
3.42364e-07
3.42365e-07
3.42366e-07
3.42366e-07
3.42367e-07
3.42368e-07
3.42369e-07
3.4237e-07
3.4237e-07
3.42371e-07
3.42372e-07
3.42373e-07
3.42374e-07
3.42375e-07
3.42375e-07
3.42376e-07
3.42377e-07
3.42378e-07
3.42379e-07
3.4238e-07
3.4238e-07
3.42381e-07
3.42382e-07
3.42383e-07
3.42384e-07
3.42384e-07
3.42385e-07
3.42386e-07
3.42387e-07
3.42387e-07
3.42388e-07
3.42389e-07
3.42389e-07
3.4239e-07
3.42391e-07
3.42391e-07
3.42392e-07
3.42392e-07
3.42393e-07
3.42393e-07
3.42394e-07
3.42394e-07
3.42394e-07
3.42395e-07
4.80015e-07
4.80014e-07
4.80014e-07
4.80014e-07
4.80014e-07
4.80014e-07
4.80014e-07
4.80014e-07
4.80014e-07
4.80014e-07
4.80014e-07
4.80014e-07
4.80014e-07
4.80014e-07
4.80014e-07
4.80014e-07
4.80014e-07
4.80014e-07
4.80014e-07
4.80014e-07
4.80015e-07
4.80015e-07
4.80015e-07
4.80015e-07
4.80016e-07
4.80016e-07
4.80017e-07
4.80017e-07
4.80017e-07
4.80018e-07
4.80018e-07
4.80018e-07
4.80019e-07
4.8002e-07
4.8002e-07
4.80021e-07
4.80021e-07
4.80022e-07
4.80023e-07
4.80023e-07
4.80024e-07
4.80025e-07
4.80026e-07
4.80026e-07
4.80027e-07
4.80028e-07
4.80029e-07
4.8003e-07
4.80031e-07
4.80032e-07
4.80033e-07
4.80034e-07
4.80035e-07
4.80036e-07
4.80037e-07
4.80038e-07
4.80039e-07
4.8004e-07
4.80041e-07
4.80042e-07
4.80044e-07
4.80045e-07
4.80046e-07
4.80047e-07
4.80048e-07
4.80049e-07
4.8005e-07
4.80052e-07
4.80053e-07
4.80054e-07
4.80055e-07
4.80056e-07
4.80058e-07
4.80059e-07
4.8006e-07
4.80061e-07
4.80062e-07
4.80063e-07
4.80064e-07
4.80065e-07
4.80067e-07
4.80068e-07
4.80069e-07
4.8007e-07
4.80071e-07
4.80072e-07
4.80073e-07
4.80074e-07
4.80075e-07
4.80075e-07
4.80076e-07
4.80077e-07
4.80078e-07
4.80078e-07
4.80079e-07
4.8008e-07
4.8008e-07
4.80081e-07
4.80081e-07
4.80082e-07
6.18414e-07
6.18413e-07
6.18413e-07
6.18412e-07
6.18412e-07
6.18412e-07
6.18412e-07
6.18412e-07
6.18412e-07
6.18412e-07
6.18412e-07
6.18412e-07
6.18412e-07
6.18412e-07
6.18412e-07
6.18412e-07
6.18412e-07
6.18412e-07
6.18413e-07
6.18413e-07
6.18413e-07
6.18414e-07
6.18414e-07
6.18414e-07
6.18415e-07
6.18415e-07
6.18416e-07
6.18416e-07
6.18416e-07
6.18417e-07
6.18418e-07
6.18418e-07
6.18419e-07
6.1842e-07
6.1842e-07
6.18421e-07
6.18422e-07
6.18423e-07
6.18423e-07
6.18424e-07
6.18425e-07
6.18426e-07
6.18427e-07
6.18428e-07
6.18429e-07
6.18431e-07
6.18432e-07
6.18433e-07
6.18434e-07
6.18435e-07
6.18437e-07
6.18438e-07
6.18439e-07
6.18441e-07
6.18442e-07
6.18443e-07
6.18445e-07
6.18446e-07
6.18447e-07
6.18449e-07
6.1845e-07
6.18452e-07
6.18453e-07
6.18455e-07
6.18456e-07
6.18458e-07
6.18459e-07
6.18461e-07
6.18462e-07
6.18464e-07
6.18465e-07
6.18467e-07
6.18468e-07
6.1847e-07
6.18471e-07
6.18473e-07
6.18474e-07
6.18476e-07
6.18477e-07
6.18479e-07
6.1848e-07
6.18481e-07
6.18483e-07
6.18484e-07
6.18485e-07
6.18487e-07
6.18488e-07
6.18489e-07
6.1849e-07
6.18491e-07
6.18493e-07
6.18493e-07
6.18494e-07
6.18495e-07
6.18496e-07
6.18497e-07
6.18498e-07
6.18499e-07
6.18499e-07
6.185e-07
7.57754e-07
7.57753e-07
7.57752e-07
7.57752e-07
7.57751e-07
7.57751e-07
7.57751e-07
7.57751e-07
7.57751e-07
7.57751e-07
7.57751e-07
7.57751e-07
7.57751e-07
7.57751e-07
7.57751e-07
7.57751e-07
7.57751e-07
7.57752e-07
7.57752e-07
7.57752e-07
7.57753e-07
7.57753e-07
7.57753e-07
7.57754e-07
7.57755e-07
7.57755e-07
7.57756e-07
7.57756e-07
7.57757e-07
7.57758e-07
7.57758e-07
7.57759e-07
7.5776e-07
7.57761e-07
7.57761e-07
7.57762e-07
7.57763e-07
7.57764e-07
7.57765e-07
7.57766e-07
7.57768e-07
7.57769e-07
7.5777e-07
7.57771e-07
7.57773e-07
7.57774e-07
7.57775e-07
7.57777e-07
7.57778e-07
7.5778e-07
7.57781e-07
7.57783e-07
7.57785e-07
7.57786e-07
7.57788e-07
7.5779e-07
7.57791e-07
7.57793e-07
7.57795e-07
7.57796e-07
7.57798e-07
7.578e-07
7.57802e-07
7.57803e-07
7.57805e-07
7.57807e-07
7.57809e-07
7.57811e-07
7.57813e-07
7.57814e-07
7.57816e-07
7.57818e-07
7.5782e-07
7.57822e-07
7.57824e-07
7.57826e-07
7.57827e-07
7.57829e-07
7.57831e-07
7.57833e-07
7.57834e-07
7.57836e-07
7.57838e-07
7.57839e-07
7.57841e-07
7.57842e-07
7.57844e-07
7.57846e-07
7.57847e-07
7.57848e-07
7.5785e-07
7.57851e-07
7.57852e-07
7.57853e-07
7.57854e-07
7.57855e-07
7.57856e-07
7.57857e-07
7.57858e-07
7.57859e-07
8.98245e-07
8.98244e-07
8.98244e-07
8.98244e-07
8.98244e-07
8.98243e-07
8.98243e-07
8.98243e-07
8.98243e-07
8.98243e-07
8.98243e-07
8.98243e-07
8.98243e-07
8.98243e-07
8.98243e-07
8.98243e-07
8.98243e-07
8.98243e-07
8.98244e-07
8.98244e-07
8.98245e-07
8.98245e-07
8.98246e-07
8.98246e-07
8.98247e-07
8.98247e-07
8.98248e-07
8.98249e-07
8.98249e-07
8.9825e-07
8.98251e-07
8.98252e-07
8.98253e-07
8.98254e-07
8.98255e-07
8.98256e-07
8.98257e-07
8.98258e-07
8.9826e-07
8.98261e-07
8.98262e-07
8.98264e-07
8.98265e-07
8.98267e-07
8.98268e-07
8.9827e-07
8.98272e-07
8.98273e-07
8.98275e-07
8.98277e-07
8.98279e-07
8.98281e-07
8.98282e-07
8.98284e-07
8.98286e-07
8.98288e-07
8.9829e-07
8.98292e-07
8.98294e-07
8.98296e-07
8.98298e-07
8.98301e-07
8.98303e-07
8.98305e-07
8.98307e-07
8.98309e-07
8.98311e-07
8.98314e-07
8.98316e-07
8.98318e-07
8.9832e-07
8.98322e-07
8.98325e-07
8.98327e-07
8.98329e-07
8.98331e-07
8.98333e-07
8.98335e-07
8.98337e-07
8.98339e-07
8.98341e-07
8.98343e-07
8.98345e-07
8.98347e-07
8.98349e-07
8.98351e-07
8.98353e-07
8.98355e-07
8.98356e-07
8.98358e-07
8.98359e-07
8.98361e-07
8.98362e-07
8.98364e-07
8.98365e-07
8.98366e-07
8.98367e-07
8.98368e-07
8.98369e-07
8.9837e-07
1.0401e-06
1.0401e-06
1.0401e-06
1.0401e-06
1.0401e-06
1.0401e-06
1.0401e-06
1.0401e-06
1.0401e-06
1.0401e-06
1.0401e-06
1.0401e-06
1.0401e-06
1.0401e-06
1.0401e-06
1.0401e-06
1.0401e-06
1.0401e-06
1.0401e-06
1.0401e-06
1.0401e-06
1.0401e-06
1.0401e-06
1.0401e-06
1.0401e-06
1.04011e-06
1.04011e-06
1.04011e-06
1.04011e-06
1.04011e-06
1.04011e-06
1.04011e-06
1.04011e-06
1.04011e-06
1.04011e-06
1.04012e-06
1.04012e-06
1.04012e-06
1.04012e-06
1.04012e-06
1.04012e-06
1.04012e-06
1.04013e-06
1.04013e-06
1.04013e-06
1.04013e-06
1.04013e-06
1.04014e-06
1.04014e-06
1.04014e-06
1.04014e-06
1.04014e-06
1.04015e-06
1.04015e-06
1.04015e-06
1.04015e-06
1.04015e-06
1.04016e-06
1.04016e-06
1.04016e-06
1.04016e-06
1.04017e-06
1.04017e-06
1.04017e-06
1.04017e-06
1.04018e-06
1.04018e-06
1.04018e-06
1.04018e-06
1.04019e-06
1.04019e-06
1.04019e-06
1.04019e-06
1.0402e-06
1.0402e-06
1.0402e-06
1.0402e-06
1.04021e-06
1.04021e-06
1.04021e-06
1.04021e-06
1.04022e-06
1.04022e-06
1.04022e-06
1.04022e-06
1.04023e-06
1.04023e-06
1.04023e-06
1.04023e-06
1.04023e-06
1.04023e-06
1.04024e-06
1.04024e-06
1.04024e-06
1.04024e-06
1.04024e-06
1.04024e-06
1.04025e-06
1.04025e-06
1.04025e-06
1.18354e-06
1.18354e-06
1.18354e-06
1.18354e-06
1.18354e-06
1.18354e-06
1.18354e-06
1.18354e-06
1.18354e-06
1.18354e-06
1.18354e-06
1.18354e-06
1.18354e-06
1.18354e-06
1.18354e-06
1.18354e-06
1.18354e-06
1.18354e-06
1.18354e-06
1.18354e-06
1.18354e-06
1.18354e-06
1.18354e-06
1.18354e-06
1.18354e-06
1.18354e-06
1.18355e-06
1.18355e-06
1.18355e-06
1.18355e-06
1.18355e-06
1.18355e-06
1.18355e-06
1.18355e-06
1.18355e-06
1.18356e-06
1.18356e-06
1.18356e-06
1.18356e-06
1.18356e-06
1.18356e-06
1.18357e-06
1.18357e-06
1.18357e-06
1.18357e-06
1.18357e-06
1.18358e-06
1.18358e-06
1.18358e-06
1.18358e-06
1.18359e-06
1.18359e-06
1.18359e-06
1.18359e-06
1.1836e-06
1.1836e-06
1.1836e-06
1.1836e-06
1.18361e-06
1.18361e-06
1.18361e-06
1.18361e-06
1.18362e-06
1.18362e-06
1.18362e-06
1.18363e-06
1.18363e-06
1.18363e-06
1.18363e-06
1.18364e-06
1.18364e-06
1.18364e-06
1.18365e-06
1.18365e-06
1.18365e-06
1.18365e-06
1.18366e-06
1.18366e-06
1.18366e-06
1.18366e-06
1.18367e-06
1.18367e-06
1.18367e-06
1.18367e-06
1.18368e-06
1.18368e-06
1.18368e-06
1.18368e-06
1.18369e-06
1.18369e-06
1.18369e-06
1.18369e-06
1.18369e-06
1.1837e-06
1.1837e-06
1.1837e-06
1.1837e-06
1.1837e-06
1.1837e-06
1.18371e-06
1.32878e-06
1.32878e-06
1.32877e-06
1.32877e-06
1.32877e-06
1.32877e-06
1.32877e-06
1.32877e-06
1.32877e-06
1.32877e-06
1.32877e-06
1.32877e-06
1.32877e-06
1.32877e-06
1.32877e-06
1.32877e-06
1.32877e-06
1.32877e-06
1.32877e-06
1.32878e-06
1.32878e-06
1.32878e-06
1.32878e-06
1.32878e-06
1.32878e-06
1.32878e-06
1.32878e-06
1.32878e-06
1.32878e-06
1.32878e-06
1.32879e-06
1.32879e-06
1.32879e-06
1.32879e-06
1.32879e-06
1.32879e-06
1.32879e-06
1.3288e-06
1.3288e-06
1.3288e-06
1.3288e-06
1.3288e-06
1.32881e-06
1.32881e-06
1.32881e-06
1.32881e-06
1.32882e-06
1.32882e-06
1.32882e-06
1.32882e-06
1.32883e-06
1.32883e-06
1.32883e-06
1.32883e-06
1.32884e-06
1.32884e-06
1.32884e-06
1.32885e-06
1.32885e-06
1.32885e-06
1.32886e-06
1.32886e-06
1.32886e-06
1.32886e-06
1.32887e-06
1.32887e-06
1.32887e-06
1.32888e-06
1.32888e-06
1.32888e-06
1.32889e-06
1.32889e-06
1.32889e-06
1.3289e-06
1.3289e-06
1.3289e-06
1.32891e-06
1.32891e-06
1.32891e-06
1.32892e-06
1.32892e-06
1.32892e-06
1.32892e-06
1.32893e-06
1.32893e-06
1.32893e-06
1.32893e-06
1.32894e-06
1.32894e-06
1.32894e-06
1.32894e-06
1.32895e-06
1.32895e-06
1.32895e-06
1.32895e-06
1.32895e-06
1.32896e-06
1.32896e-06
1.32896e-06
1.32896e-06
1.47603e-06
1.47603e-06
1.47603e-06
1.47603e-06
1.47603e-06
1.47603e-06
1.47603e-06
1.47603e-06
1.47603e-06
1.47603e-06
1.47603e-06
1.47603e-06
1.47603e-06
1.47603e-06
1.47603e-06
1.47603e-06
1.47603e-06
1.47603e-06
1.47603e-06
1.47603e-06
1.47603e-06
1.47603e-06
1.47603e-06
1.47603e-06
1.47603e-06
1.47603e-06
1.47603e-06
1.47604e-06
1.47604e-06
1.47604e-06
1.47604e-06
1.47604e-06
1.47604e-06
1.47604e-06
1.47605e-06
1.47605e-06
1.47605e-06
1.47605e-06
1.47605e-06
1.47605e-06
1.47606e-06
1.47606e-06
1.47606e-06
1.47606e-06
1.47607e-06
1.47607e-06
1.47607e-06
1.47608e-06
1.47608e-06
1.47608e-06
1.47608e-06
1.47609e-06
1.47609e-06
1.47609e-06
1.4761e-06
1.4761e-06
1.4761e-06
1.47611e-06
1.47611e-06
1.47611e-06
1.47612e-06
1.47612e-06
1.47612e-06
1.47613e-06
1.47613e-06
1.47613e-06
1.47614e-06
1.47614e-06
1.47614e-06
1.47615e-06
1.47615e-06
1.47615e-06
1.47616e-06
1.47616e-06
1.47617e-06
1.47617e-06
1.47617e-06
1.47618e-06
1.47618e-06
1.47618e-06
1.47619e-06
1.47619e-06
1.47619e-06
1.4762e-06
1.4762e-06
1.4762e-06
1.4762e-06
1.47621e-06
1.47621e-06
1.47621e-06
1.47622e-06
1.47622e-06
1.47622e-06
1.47622e-06
1.47622e-06
1.47623e-06
1.47623e-06
1.47623e-06
1.47623e-06
1.47623e-06
1.62552e-06
1.62552e-06
1.62552e-06
1.62552e-06
1.62552e-06
1.62552e-06
1.62552e-06
1.62552e-06
1.62552e-06
1.62552e-06
1.62552e-06
1.62552e-06
1.62552e-06
1.62552e-06
1.62552e-06
1.62552e-06
1.62552e-06
1.62552e-06
1.62552e-06
1.62552e-06
1.62552e-06
1.62552e-06
1.62552e-06
1.62552e-06
1.62552e-06
1.62552e-06
1.62553e-06
1.62553e-06
1.62553e-06
1.62553e-06
1.62553e-06
1.62553e-06
1.62553e-06
1.62554e-06
1.62554e-06
1.62554e-06
1.62554e-06
1.62554e-06
1.62555e-06
1.62555e-06
1.62555e-06
1.62555e-06
1.62556e-06
1.62556e-06
1.62556e-06
1.62556e-06
1.62557e-06
1.62557e-06
1.62557e-06
1.62558e-06
1.62558e-06
1.62558e-06
1.62559e-06
1.62559e-06
1.62559e-06
1.6256e-06
1.6256e-06
1.6256e-06
1.62561e-06
1.62561e-06
1.62562e-06
1.62562e-06
1.62562e-06
1.62563e-06
1.62563e-06
1.62563e-06
1.62564e-06
1.62564e-06
1.62565e-06
1.62565e-06
1.62565e-06
1.62566e-06
1.62566e-06
1.62567e-06
1.62567e-06
1.62567e-06
1.62568e-06
1.62568e-06
1.62568e-06
1.62569e-06
1.62569e-06
1.6257e-06
1.6257e-06
1.6257e-06
1.62571e-06
1.62571e-06
1.62571e-06
1.62572e-06
1.62572e-06
1.62572e-06
1.62572e-06
1.62573e-06
1.62573e-06
1.62573e-06
1.62573e-06
1.62574e-06
1.62574e-06
1.62574e-06
1.62574e-06
1.62574e-06
1.77747e-06
1.77747e-06
1.77747e-06
1.77747e-06
1.77747e-06
1.77747e-06
1.77747e-06
1.77747e-06
1.77747e-06
1.77747e-06
1.77747e-06
1.77747e-06
1.77747e-06
1.77747e-06
1.77747e-06
1.77747e-06
1.77747e-06
1.77747e-06
1.77747e-06
1.77747e-06
1.77747e-06
1.77748e-06
1.77748e-06
1.77748e-06
1.77748e-06
1.77748e-06
1.77748e-06
1.77748e-06
1.77748e-06
1.77749e-06
1.77749e-06
1.77749e-06
1.77749e-06
1.77749e-06
1.77749e-06
1.7775e-06
1.7775e-06
1.7775e-06
1.7775e-06
1.77751e-06
1.77751e-06
1.77751e-06
1.77751e-06
1.77752e-06
1.77752e-06
1.77752e-06
1.77753e-06
1.77753e-06
1.77753e-06
1.77754e-06
1.77754e-06
1.77754e-06
1.77755e-06
1.77755e-06
1.77756e-06
1.77756e-06
1.77756e-06
1.77757e-06
1.77757e-06
1.77758e-06
1.77758e-06
1.77758e-06
1.77759e-06
1.77759e-06
1.7776e-06
1.7776e-06
1.7776e-06
1.77761e-06
1.77761e-06
1.77762e-06
1.77762e-06
1.77763e-06
1.77763e-06
1.77763e-06
1.77764e-06
1.77764e-06
1.77765e-06
1.77765e-06
1.77765e-06
1.77766e-06
1.77766e-06
1.77767e-06
1.77767e-06
1.77767e-06
1.77768e-06
1.77768e-06
1.77768e-06
1.77769e-06
1.77769e-06
1.77769e-06
1.7777e-06
1.7777e-06
1.7777e-06
1.77771e-06
1.77771e-06
1.77771e-06
1.77771e-06
1.77772e-06
1.77772e-06
1.77772e-06
1.93212e-06
1.93212e-06
1.93212e-06
1.93212e-06
1.93212e-06
1.93212e-06
1.93212e-06
1.93212e-06
1.93212e-06
1.93212e-06
1.93212e-06
1.93212e-06
1.93212e-06
1.93212e-06
1.93212e-06
1.93212e-06
1.93212e-06
1.93212e-06
1.93212e-06
1.93212e-06
1.93212e-06
1.93212e-06
1.93212e-06
1.93212e-06
1.93213e-06
1.93213e-06
1.93213e-06
1.93213e-06
1.93213e-06
1.93213e-06
1.93213e-06
1.93214e-06
1.93214e-06
1.93214e-06
1.93214e-06
1.93214e-06
1.93215e-06
1.93215e-06
1.93215e-06
1.93216e-06
1.93216e-06
1.93216e-06
1.93216e-06
1.93217e-06
1.93217e-06
1.93217e-06
1.93218e-06
1.93218e-06
1.93218e-06
1.93219e-06
1.93219e-06
1.9322e-06
1.9322e-06
1.9322e-06
1.93221e-06
1.93221e-06
1.93222e-06
1.93222e-06
1.93223e-06
1.93223e-06
1.93223e-06
1.93224e-06
1.93224e-06
1.93225e-06
1.93225e-06
1.93226e-06
1.93226e-06
1.93227e-06
1.93227e-06
1.93228e-06
1.93228e-06
1.93228e-06
1.93229e-06
1.93229e-06
1.9323e-06
1.9323e-06
1.93231e-06
1.93231e-06
1.93232e-06
1.93232e-06
1.93232e-06
1.93233e-06
1.93233e-06
1.93234e-06
1.93234e-06
1.93234e-06
1.93235e-06
1.93235e-06
1.93236e-06
1.93236e-06
1.93236e-06
1.93237e-06
1.93237e-06
1.93237e-06
1.93237e-06
1.93238e-06
1.93238e-06
1.93238e-06
1.93238e-06
1.93239e-06
2.08969e-06
2.08969e-06
2.08969e-06
2.08969e-06
2.08969e-06
2.08969e-06
2.08969e-06
2.08969e-06
2.08969e-06
2.08969e-06
2.08969e-06
2.08969e-06
2.08969e-06
2.08969e-06
2.08969e-06
2.08969e-06
2.08969e-06
2.08969e-06
2.08969e-06
2.08969e-06
2.08969e-06
2.08969e-06
2.08969e-06
2.08969e-06
2.0897e-06
2.0897e-06
2.0897e-06
2.0897e-06
2.0897e-06
2.0897e-06
2.08971e-06
2.08971e-06
2.08971e-06
2.08971e-06
2.08971e-06
2.08972e-06
2.08972e-06
2.08972e-06
2.08972e-06
2.08973e-06
2.08973e-06
2.08973e-06
2.08974e-06
2.08974e-06
2.08974e-06
2.08975e-06
2.08975e-06
2.08976e-06
2.08976e-06
2.08976e-06
2.08977e-06
2.08977e-06
2.08978e-06
2.08978e-06
2.08979e-06
2.08979e-06
2.08979e-06
2.0898e-06
2.0898e-06
2.08981e-06
2.08981e-06
2.08982e-06
2.08982e-06
2.08983e-06
2.08983e-06
2.08984e-06
2.08984e-06
2.08985e-06
2.08985e-06
2.08986e-06
2.08986e-06
2.08987e-06
2.08987e-06
2.08988e-06
2.08988e-06
2.08989e-06
2.08989e-06
2.0899e-06
2.0899e-06
2.08991e-06
2.08991e-06
2.08991e-06
2.08992e-06
2.08992e-06
2.08993e-06
2.08993e-06
2.08994e-06
2.08994e-06
2.08994e-06
2.08995e-06
2.08995e-06
2.08995e-06
2.08996e-06
2.08996e-06
2.08996e-06
2.08997e-06
2.08997e-06
2.08997e-06
2.08997e-06
2.08998e-06
2.25042e-06
2.25042e-06
2.25042e-06
2.25042e-06
2.25042e-06
2.25041e-06
2.25041e-06
2.25041e-06
2.25041e-06
2.25041e-06
2.25041e-06
2.25041e-06
2.25041e-06
2.25041e-06
2.25041e-06
2.25042e-06
2.25042e-06
2.25042e-06
2.25042e-06
2.25042e-06
2.25042e-06
2.25042e-06
2.25042e-06
2.25042e-06
2.25042e-06
2.25043e-06
2.25043e-06
2.25043e-06
2.25043e-06
2.25043e-06
2.25044e-06
2.25044e-06
2.25044e-06
2.25044e-06
2.25044e-06
2.25045e-06
2.25045e-06
2.25045e-06
2.25046e-06
2.25046e-06
2.25046e-06
2.25047e-06
2.25047e-06
2.25047e-06
2.25048e-06
2.25048e-06
2.25048e-06
2.25049e-06
2.25049e-06
2.2505e-06
2.2505e-06
2.25051e-06
2.25051e-06
2.25052e-06
2.25052e-06
2.25053e-06
2.25053e-06
2.25053e-06
2.25054e-06
2.25054e-06
2.25055e-06
2.25056e-06
2.25056e-06
2.25057e-06
2.25057e-06
2.25058e-06
2.25058e-06
2.25059e-06
2.25059e-06
2.2506e-06
2.2506e-06
2.25061e-06
2.25061e-06
2.25062e-06
2.25062e-06
2.25063e-06
2.25063e-06
2.25064e-06
2.25064e-06
2.25065e-06
2.25065e-06
2.25066e-06
2.25066e-06
2.25067e-06
2.25067e-06
2.25068e-06
2.25068e-06
2.25069e-06
2.25069e-06
2.25069e-06
2.2507e-06
2.2507e-06
2.25071e-06
2.25071e-06
2.25071e-06
2.25071e-06
2.25072e-06
2.25072e-06
2.25072e-06
2.25073e-06
2.41455e-06
2.41454e-06
2.41454e-06
2.41454e-06
2.41454e-06
2.41454e-06
2.41454e-06
2.41454e-06
2.41454e-06
2.41454e-06
2.41454e-06
2.41454e-06
2.41454e-06
2.41454e-06
2.41454e-06
2.41454e-06
2.41454e-06
2.41454e-06
2.41454e-06
2.41454e-06
2.41455e-06
2.41455e-06
2.41455e-06
2.41455e-06
2.41455e-06
2.41455e-06
2.41455e-06
2.41456e-06
2.41456e-06
2.41456e-06
2.41456e-06
2.41456e-06
2.41457e-06
2.41457e-06
2.41457e-06
2.41458e-06
2.41458e-06
2.41458e-06
2.41458e-06
2.41459e-06
2.41459e-06
2.4146e-06
2.4146e-06
2.4146e-06
2.41461e-06
2.41461e-06
2.41462e-06
2.41462e-06
2.41462e-06
2.41463e-06
2.41463e-06
2.41464e-06
2.41464e-06
2.41465e-06
2.41465e-06
2.41466e-06
2.41466e-06
2.41467e-06
2.41467e-06
2.41468e-06
2.41469e-06
2.41469e-06
2.4147e-06
2.4147e-06
2.41471e-06
2.41471e-06
2.41472e-06
2.41472e-06
2.41473e-06
2.41474e-06
2.41474e-06
2.41475e-06
2.41475e-06
2.41476e-06
2.41476e-06
2.41477e-06
2.41478e-06
2.41478e-06
2.41479e-06
2.41479e-06
2.4148e-06
2.4148e-06
2.41481e-06
2.41481e-06
2.41482e-06
2.41482e-06
2.41483e-06
2.41483e-06
2.41484e-06
2.41484e-06
2.41484e-06
2.41485e-06
2.41485e-06
2.41485e-06
2.41486e-06
2.41486e-06
2.41486e-06
2.41487e-06
2.41487e-06
2.41487e-06
2.58231e-06
2.58231e-06
2.58231e-06
2.58231e-06
2.58231e-06
2.58231e-06
2.58231e-06
2.58231e-06
2.58231e-06
2.58231e-06
2.58231e-06
2.58231e-06
2.58231e-06
2.58231e-06
2.58231e-06
2.58231e-06
2.58231e-06
2.58231e-06
2.58231e-06
2.58231e-06
2.58231e-06
2.58232e-06
2.58232e-06
2.58232e-06
2.58232e-06
2.58232e-06
2.58232e-06
2.58233e-06
2.58233e-06
2.58233e-06
2.58233e-06
2.58233e-06
2.58234e-06
2.58234e-06
2.58234e-06
2.58235e-06
2.58235e-06
2.58235e-06
2.58236e-06
2.58236e-06
2.58236e-06
2.58237e-06
2.58237e-06
2.58238e-06
2.58238e-06
2.58238e-06
2.58239e-06
2.58239e-06
2.5824e-06
2.5824e-06
2.58241e-06
2.58241e-06
2.58242e-06
2.58242e-06
2.58243e-06
2.58243e-06
2.58244e-06
2.58245e-06
2.58245e-06
2.58246e-06
2.58246e-06
2.58247e-06
2.58247e-06
2.58248e-06
2.58249e-06
2.58249e-06
2.5825e-06
2.5825e-06
2.58251e-06
2.58252e-06
2.58252e-06
2.58253e-06
2.58253e-06
2.58254e-06
2.58255e-06
2.58255e-06
2.58256e-06
2.58256e-06
2.58257e-06
2.58258e-06
2.58258e-06
2.58259e-06
2.58259e-06
2.5826e-06
2.5826e-06
2.58261e-06
2.58261e-06
2.58262e-06
2.58262e-06
2.58263e-06
2.58263e-06
2.58264e-06
2.58264e-06
2.58264e-06
2.58265e-06
2.58265e-06
2.58265e-06
2.58266e-06
2.58266e-06
2.58266e-06
2.75397e-06
2.75397e-06
2.75397e-06
2.75397e-06
2.75397e-06
2.75397e-06
2.75397e-06
2.75397e-06
2.75397e-06
2.75397e-06
2.75397e-06
2.75397e-06
2.75397e-06
2.75397e-06
2.75397e-06
2.75397e-06
2.75397e-06
2.75397e-06
2.75397e-06
2.75397e-06
2.75397e-06
2.75398e-06
2.75398e-06
2.75398e-06
2.75398e-06
2.75398e-06
2.75398e-06
2.75399e-06
2.75399e-06
2.75399e-06
2.75399e-06
2.754e-06
2.754e-06
2.754e-06
2.754e-06
2.75401e-06
2.75401e-06
2.75401e-06
2.75402e-06
2.75402e-06
2.75403e-06
2.75403e-06
2.75403e-06
2.75404e-06
2.75404e-06
2.75405e-06
2.75405e-06
2.75406e-06
2.75406e-06
2.75407e-06
2.75407e-06
2.75408e-06
2.75408e-06
2.75409e-06
2.7541e-06
2.7541e-06
2.75411e-06
2.75411e-06
2.75412e-06
2.75413e-06
2.75413e-06
2.75414e-06
2.75414e-06
2.75415e-06
2.75416e-06
2.75416e-06
2.75417e-06
2.75418e-06
2.75418e-06
2.75419e-06
2.75419e-06
2.7542e-06
2.75421e-06
2.75421e-06
2.75422e-06
2.75423e-06
2.75423e-06
2.75424e-06
2.75424e-06
2.75425e-06
2.75426e-06
2.75426e-06
2.75427e-06
2.75427e-06
2.75428e-06
2.75429e-06
2.75429e-06
2.7543e-06
2.7543e-06
2.75431e-06
2.75431e-06
2.75431e-06
2.75432e-06
2.75432e-06
2.75433e-06
2.75433e-06
2.75433e-06
2.75434e-06
2.75434e-06
2.75434e-06
2.92978e-06
2.92977e-06
2.92977e-06
2.92977e-06
2.92977e-06
2.92977e-06
2.92977e-06
2.92977e-06
2.92977e-06
2.92977e-06
2.92977e-06
2.92977e-06
2.92977e-06
2.92977e-06
2.92977e-06
2.92977e-06
2.92977e-06
2.92977e-06
2.92977e-06
2.92978e-06
2.92978e-06
2.92978e-06
2.92978e-06
2.92978e-06
2.92978e-06
2.92979e-06
2.92979e-06
2.92979e-06
2.92979e-06
2.9298e-06
2.9298e-06
2.9298e-06
2.9298e-06
2.92981e-06
2.92981e-06
2.92981e-06
2.92982e-06
2.92982e-06
2.92982e-06
2.92983e-06
2.92983e-06
2.92984e-06
2.92984e-06
2.92985e-06
2.92985e-06
2.92986e-06
2.92986e-06
2.92987e-06
2.92987e-06
2.92988e-06
2.92988e-06
2.92989e-06
2.92989e-06
2.9299e-06
2.92991e-06
2.92991e-06
2.92992e-06
2.92992e-06
2.92993e-06
2.92994e-06
2.92994e-06
2.92995e-06
2.92996e-06
2.92996e-06
2.92997e-06
2.92998e-06
2.92998e-06
2.92999e-06
2.93e-06
2.93e-06
2.93001e-06
2.93002e-06
2.93002e-06
2.93003e-06
2.93004e-06
2.93004e-06
2.93005e-06
2.93006e-06
2.93006e-06
2.93007e-06
2.93008e-06
2.93008e-06
2.93009e-06
2.93009e-06
2.9301e-06
2.93011e-06
2.93011e-06
2.93012e-06
2.93012e-06
2.93013e-06
2.93013e-06
2.93014e-06
2.93014e-06
2.93015e-06
2.93015e-06
2.93015e-06
2.93016e-06
2.93016e-06
2.93016e-06
2.93017e-06
3.10998e-06
3.10998e-06
3.10998e-06
3.10998e-06
3.10998e-06
3.10998e-06
3.10998e-06
3.10998e-06
3.10998e-06
3.10998e-06
3.10998e-06
3.10998e-06
3.10998e-06
3.10998e-06
3.10998e-06
3.10998e-06
3.10998e-06
3.10998e-06
3.10998e-06
3.10998e-06
3.10998e-06
3.10999e-06
3.10999e-06
3.10999e-06
3.10999e-06
3.10999e-06
3.11e-06
3.11e-06
3.11e-06
3.11e-06
3.11001e-06
3.11001e-06
3.11001e-06
3.11001e-06
3.11002e-06
3.11002e-06
3.11003e-06
3.11003e-06
3.11003e-06
3.11004e-06
3.11004e-06
3.11005e-06
3.11005e-06
3.11006e-06
3.11006e-06
3.11007e-06
3.11007e-06
3.11008e-06
3.11008e-06
3.11009e-06
3.1101e-06
3.1101e-06
3.11011e-06
3.11011e-06
3.11012e-06
3.11013e-06
3.11013e-06
3.11014e-06
3.11015e-06
3.11015e-06
3.11016e-06
3.11017e-06
3.11017e-06
3.11018e-06
3.11019e-06
3.1102e-06
3.1102e-06
3.11021e-06
3.11022e-06
3.11022e-06
3.11023e-06
3.11024e-06
3.11025e-06
3.11025e-06
3.11026e-06
3.11027e-06
3.11027e-06
3.11028e-06
3.11029e-06
3.11029e-06
3.1103e-06
3.11031e-06
3.11031e-06
3.11032e-06
3.11033e-06
3.11033e-06
3.11034e-06
3.11034e-06
3.11035e-06
3.11035e-06
3.11036e-06
3.11036e-06
3.11037e-06
3.11037e-06
3.11038e-06
3.11038e-06
3.11039e-06
3.11039e-06
3.11039e-06
3.1104e-06
3.29486e-06
3.29486e-06
3.29486e-06
3.29485e-06
3.29485e-06
3.29485e-06
3.29485e-06
3.29485e-06
3.29485e-06
3.29485e-06
3.29485e-06
3.29485e-06
3.29485e-06
3.29485e-06
3.29485e-06
3.29485e-06
3.29485e-06
3.29485e-06
3.29486e-06
3.29486e-06
3.29486e-06
3.29486e-06
3.29486e-06
3.29486e-06
3.29487e-06
3.29487e-06
3.29487e-06
3.29487e-06
3.29488e-06
3.29488e-06
3.29488e-06
3.29488e-06
3.29489e-06
3.29489e-06
3.29489e-06
3.2949e-06
3.2949e-06
3.29491e-06
3.29491e-06
3.29491e-06
3.29492e-06
3.29492e-06
3.29493e-06
3.29493e-06
3.29494e-06
3.29495e-06
3.29495e-06
3.29496e-06
3.29496e-06
3.29497e-06
3.29498e-06
3.29498e-06
3.29499e-06
3.295e-06
3.295e-06
3.29501e-06
3.29502e-06
3.29502e-06
3.29503e-06
3.29504e-06
3.29504e-06
3.29505e-06
3.29506e-06
3.29507e-06
3.29507e-06
3.29508e-06
3.29509e-06
3.2951e-06
3.2951e-06
3.29511e-06
3.29512e-06
3.29513e-06
3.29513e-06
3.29514e-06
3.29515e-06
3.29516e-06
3.29516e-06
3.29517e-06
3.29518e-06
3.29518e-06
3.29519e-06
3.2952e-06
3.29521e-06
3.29521e-06
3.29522e-06
3.29522e-06
3.29523e-06
3.29524e-06
3.29524e-06
3.29525e-06
3.29525e-06
3.29526e-06
3.29526e-06
3.29527e-06
3.29527e-06
3.29528e-06
3.29528e-06
3.29529e-06
3.29529e-06
3.29529e-06
3.48467e-06
3.48467e-06
3.48467e-06
3.48467e-06
3.48467e-06
3.48467e-06
3.48467e-06
3.48466e-06
3.48466e-06
3.48466e-06
3.48466e-06
3.48466e-06
3.48466e-06
3.48467e-06
3.48467e-06
3.48467e-06
3.48467e-06
3.48467e-06
3.48467e-06
3.48467e-06
3.48467e-06
3.48467e-06
3.48468e-06
3.48468e-06
3.48468e-06
3.48468e-06
3.48469e-06
3.48469e-06
3.48469e-06
3.48469e-06
3.4847e-06
3.4847e-06
3.4847e-06
3.48471e-06
3.48471e-06
3.48471e-06
3.48472e-06
3.48472e-06
3.48473e-06
3.48473e-06
3.48474e-06
3.48474e-06
3.48475e-06
3.48475e-06
3.48476e-06
3.48476e-06
3.48477e-06
3.48478e-06
3.48478e-06
3.48479e-06
3.4848e-06
3.4848e-06
3.48481e-06
3.48482e-06
3.48482e-06
3.48483e-06
3.48484e-06
3.48484e-06
3.48485e-06
3.48486e-06
3.48487e-06
3.48488e-06
3.48488e-06
3.48489e-06
3.4849e-06
3.48491e-06
3.48491e-06
3.48492e-06
3.48493e-06
3.48494e-06
3.48495e-06
3.48495e-06
3.48496e-06
3.48497e-06
3.48498e-06
3.48498e-06
3.48499e-06
3.485e-06
3.48501e-06
3.48501e-06
3.48502e-06
3.48503e-06
3.48504e-06
3.48504e-06
3.48505e-06
3.48506e-06
3.48506e-06
3.48507e-06
3.48508e-06
3.48508e-06
3.48509e-06
3.48509e-06
3.4851e-06
3.4851e-06
3.48511e-06
3.48511e-06
3.48512e-06
3.48512e-06
3.48512e-06
3.48513e-06
3.6797e-06
3.6797e-06
3.6797e-06
3.6797e-06
3.6797e-06
3.67969e-06
3.67969e-06
3.67969e-06
3.67969e-06
3.67969e-06
3.67969e-06
3.67969e-06
3.67969e-06
3.67969e-06
3.67969e-06
3.6797e-06
3.6797e-06
3.6797e-06
3.6797e-06
3.6797e-06
3.6797e-06
3.6797e-06
3.67971e-06
3.67971e-06
3.67971e-06
3.67971e-06
3.67972e-06
3.67972e-06
3.67972e-06
3.67972e-06
3.67973e-06
3.67973e-06
3.67973e-06
3.67974e-06
3.67974e-06
3.67974e-06
3.67975e-06
3.67975e-06
3.67976e-06
3.67976e-06
3.67977e-06
3.67977e-06
3.67978e-06
3.67979e-06
3.67979e-06
3.6798e-06
3.6798e-06
3.67981e-06
3.67982e-06
3.67982e-06
3.67983e-06
3.67984e-06
3.67985e-06
3.67985e-06
3.67986e-06
3.67987e-06
3.67988e-06
3.67988e-06
3.67989e-06
3.6799e-06
3.67991e-06
3.67991e-06
3.67992e-06
3.67993e-06
3.67994e-06
3.67995e-06
3.67995e-06
3.67996e-06
3.67997e-06
3.67998e-06
3.67999e-06
3.68e-06
3.68e-06
3.68001e-06
3.68002e-06
3.68003e-06
3.68004e-06
3.68005e-06
3.68005e-06
3.68006e-06
3.68007e-06
3.68008e-06
3.68008e-06
3.68009e-06
3.6801e-06
3.68011e-06
3.68011e-06
3.68012e-06
3.68013e-06
3.68013e-06
3.68014e-06
3.68014e-06
3.68015e-06
3.68015e-06
3.68016e-06
3.68016e-06
3.68017e-06
3.68017e-06
3.68018e-06
3.68018e-06
3.88023e-06
3.88023e-06
3.88023e-06
3.88022e-06
3.88022e-06
3.88022e-06
3.88022e-06
3.88022e-06
3.88022e-06
3.88022e-06
3.88022e-06
3.88022e-06
3.88022e-06
3.88022e-06
3.88022e-06
3.88022e-06
3.88022e-06
3.88023e-06
3.88023e-06
3.88023e-06
3.88023e-06
3.88023e-06
3.88023e-06
3.88024e-06
3.88024e-06
3.88024e-06
3.88024e-06
3.88025e-06
3.88025e-06
3.88025e-06
3.88026e-06
3.88026e-06
3.88026e-06
3.88027e-06
3.88027e-06
3.88028e-06
3.88028e-06
3.88029e-06
3.88029e-06
3.8803e-06
3.8803e-06
3.88031e-06
3.88031e-06
3.88032e-06
3.88032e-06
3.88033e-06
3.88034e-06
3.88034e-06
3.88035e-06
3.88036e-06
3.88037e-06