/*--------------------------------*- C++ -*----------------------------------*\
| =========                 |                                                 |
| \\      /  F ield         | OpenFOAM: The Open Source CFD Toolbox           |
|  \\    /   O peration     | Version:  2.3.x                                 |
|   \\  /    A nd           | Web:      www.OpenFOAM.org                      |
|    \\/     M anipulation  |                                                 |
\*---------------------------------------------------------------------------*/
FoamFile
{
    version     2.0;
    format      ascii;
    class       surfaceScalarField;
    location    "0.02";
    object      phi;
}
// * * * * * * * * * * * * * * * * * * * * * * * * * * * * * * * * * * * * * //

dimensions      [1 0 -1 0 0 0 0];

internalField   nonuniform List<scalar> 
99400
(
-2.65908e-12
-9.00718e-06
-5.00173e-12
-9.00716e-06
-8.02911e-12
-9.00718e-06
-1.08387e-11
-9.00719e-06
-1.33227e-11
-9.00717e-06
-1.56581e-11
-9.00716e-06
-1.80055e-11
-9.00716e-06
-2.04158e-11
-9.00716e-06
-2.28674e-11
-9.00716e-06
-2.53295e-11
-9.00717e-06
-2.77866e-11
-9.00717e-06
-3.02357e-11
-9.00717e-06
-3.2677e-11
-9.00717e-06
-3.51094e-11
-9.00717e-06
-3.75305e-11
-9.00717e-06
-3.9937e-11
-9.00717e-06
-4.23272e-11
-9.00717e-06
-4.46977e-11
-9.00718e-06
-4.70468e-11
-9.00718e-06
-4.93733e-11
-9.00718e-06
-5.16727e-11
-9.00718e-06
-5.39447e-11
-9.00718e-06
-5.61868e-11
-9.00719e-06
-5.83954e-11
-9.00719e-06
-6.05711e-11
-9.00719e-06
-6.2709e-11
-9.00719e-06
-6.48063e-11
-9.0072e-06
-6.68651e-11
-9.0072e-06
-6.88806e-11
-9.0072e-06
-7.0847e-11
-9.00721e-06
-7.27668e-11
-9.00721e-06
-7.46389e-11
-9.00721e-06
-7.6456e-11
-9.00722e-06
-7.8216e-11
-9.00722e-06
-7.99208e-11
-9.00723e-06
-8.15668e-11
-9.00723e-06
-8.31481e-11
-9.00724e-06
-8.46634e-11
-9.00724e-06
-8.61132e-11
-9.00725e-06
-8.74941e-11
-9.00725e-06
-8.88014e-11
-9.00726e-06
-9.00331e-11
-9.00726e-06
-9.11893e-11
-9.00727e-06
-9.22675e-11
-9.00727e-06
-9.32638e-11
-9.00728e-06
-9.41756e-11
-9.00729e-06
-9.50021e-11
-9.00729e-06
-9.57422e-11
-9.0073e-06
-9.63932e-11
-9.0073e-06
-9.69524e-11
-9.00731e-06
-9.74181e-11
-9.00732e-06
-9.77895e-11
-9.00732e-06
-9.80656e-11
-9.00733e-06
-9.82443e-11
-9.00734e-06
-9.83235e-11
-9.00734e-06
-9.83017e-11
-9.00735e-06
-9.81785e-11
-9.00736e-06
-9.79531e-11
-9.00736e-06
-9.76244e-11
-9.00737e-06
-9.71908e-11
-9.00737e-06
-9.66513e-11
-9.00738e-06
-9.60053e-11
-9.00739e-06
-9.52527e-11
-9.00739e-06
-9.43932e-11
-9.0074e-06
-9.34261e-11
-9.00741e-06
-9.23507e-11
-9.00741e-06
-9.1167e-11
-9.00742e-06
-8.9875e-11
-9.00743e-06
-8.84753e-11
-9.00743e-06
-8.69683e-11
-9.00744e-06
-8.53544e-11
-9.00745e-06
-8.36338e-11
-9.00745e-06
-8.18073e-11
-9.00746e-06
-7.98757e-11
-9.00747e-06
-7.78405e-11
-9.00747e-06
-7.57031e-11
-9.00748e-06
-7.34652e-11
-9.00749e-06
-7.11282e-11
-9.00749e-06
-6.86937e-11
-9.0075e-06
-6.61636e-11
-9.00751e-06
-6.35399e-11
-9.00751e-06
-6.08252e-11
-9.00752e-06
-5.80221e-11
-9.00752e-06
-5.51337e-11
-9.00753e-06
-5.21629e-11
-9.00753e-06
-4.91128e-11
-9.00754e-06
-4.59869e-11
-9.00754e-06
-4.27892e-11
-9.00755e-06
-3.95245e-11
-9.00755e-06
-3.61972e-11
-9.00756e-06
-3.28105e-11
-9.00756e-06
-2.93673e-11
-9.00757e-06
-2.5876e-11
-9.00757e-06
-2.23598e-11
-9.00757e-06
-1.88555e-11
-9.00757e-06
-1.53784e-11
-9.00758e-06
-1.18634e-11
-9.00759e-06
-8.11792e-12
-9.00759e-06
-4.23407e-12
-9.00756e-06
-9.00755e-06
-2.43806e-12
-9.02707e-06
-4.86306e-12
-9.02705e-06
-7.93548e-12
-9.02705e-06
-1.07912e-11
-9.02706e-06
-1.329e-11
-9.02706e-06
-1.56349e-11
-9.02706e-06
-1.79959e-11
-9.02706e-06
-2.04208e-11
-9.02706e-06
-2.28841e-11
-9.02706e-06
-2.53544e-11
-9.02706e-06
-2.78174e-11
-9.02706e-06
-3.02716e-11
-9.02706e-06
-3.2718e-11
-9.02706e-06
-3.5155e-11
-9.02706e-06
-3.75812e-11
-9.02706e-06
-3.99918e-11
-9.02707e-06
-4.23865e-11
-9.02707e-06
-4.47619e-11
-9.02707e-06
-4.71149e-11
-9.02707e-06
-4.94463e-11
-9.02707e-06
-5.17495e-11
-9.02708e-06
-5.40254e-11
-9.02708e-06
-5.62733e-11
-9.02708e-06
-5.84852e-11
-9.02708e-06
-6.06638e-11
-9.02709e-06
-6.28077e-11
-9.02709e-06
-6.49094e-11
-9.02709e-06
-6.69705e-11
-9.02709e-06
-6.89904e-11
-9.0271e-06
-7.09623e-11
-9.0271e-06
-7.28856e-11
-9.0271e-06
-7.47607e-11
-9.02711e-06
-7.65822e-11
-9.02711e-06
-7.8347e-11
-9.02712e-06
-8.00555e-11
-9.02712e-06
-8.17047e-11
-9.02713e-06
-8.32898e-11
-9.02713e-06
-8.48093e-11
-9.02714e-06
-8.6263e-11
-9.02714e-06
-8.7647e-11
-9.02715e-06
-8.89573e-11
-9.02715e-06
-9.01926e-11
-9.02716e-06
-9.13524e-11
-9.02716e-06
-9.24338e-11
-9.02717e-06
-9.34327e-11
-9.02717e-06
-9.43469e-11
-9.02718e-06
-9.51762e-11
-9.02719e-06
-9.59192e-11
-9.02719e-06
-9.65726e-11
-9.0272e-06
-9.71336e-11
-9.0272e-06
-9.76009e-11
-9.02721e-06
-9.79743e-11
-9.02722e-06
-9.82524e-11
-9.02722e-06
-9.84327e-11
-9.02723e-06
-9.85129e-11
-9.02724e-06
-9.8492e-11
-9.02724e-06
-9.83696e-11
-9.02725e-06
-9.81452e-11
-9.02726e-06
-9.78172e-11
-9.02726e-06
-9.73839e-11
-9.02727e-06
-9.68443e-11
-9.02728e-06
-9.61981e-11
-9.02728e-06
-9.54452e-11
-9.02729e-06
-9.45854e-11
-9.0273e-06
-9.36177e-11
-9.0273e-06
-9.25413e-11
-9.02731e-06
-9.13562e-11
-9.02732e-06
-9.00626e-11
-9.02732e-06
-8.86612e-11
-9.02733e-06
-8.71524e-11
-9.02734e-06
-8.55365e-11
-9.02734e-06
-8.38136e-11
-9.02735e-06
-8.19843e-11
-9.02736e-06
-8.00496e-11
-9.02736e-06
-7.8011e-11
-9.02737e-06
-7.58702e-11
-9.02738e-06
-7.36287e-11
-9.02738e-06
-7.12879e-11
-9.02739e-06
-6.88492e-11
-9.02739e-06
-6.63146e-11
-9.0274e-06
-6.3686e-11
-9.02741e-06
-6.09661e-11
-9.02741e-06
-5.81577e-11
-9.02742e-06
-5.52637e-11
-9.02742e-06
-5.2287e-11
-9.02743e-06
-4.92307e-11
-9.02743e-06
-4.60981e-11
-9.02744e-06
-4.28929e-11
-9.02744e-06
-3.96201e-11
-9.02745e-06
-3.62855e-11
-9.02745e-06
-3.28932e-11
-9.02746e-06
-2.94437e-11
-9.02746e-06
-2.59356e-11
-9.02746e-06
-2.23806e-11
-9.02747e-06
-1.88228e-11
-9.02747e-06
-1.53228e-11
-9.02747e-06
-1.18679e-11
-9.02748e-06
-8.20949e-12
-9.0275e-06
-4.26114e-12
-9.02749e-06
-9.02748e-06
-2.13952e-12
-9.06033e-06
-4.7933e-12
-9.0603e-06
-7.64571e-12
-9.0603e-06
-1.05002e-11
-9.0603e-06
-1.3118e-11
-9.06031e-06
-1.55787e-11
-9.06031e-06
-1.80032e-11
-9.06031e-06
-2.04515e-11
-9.06031e-06
-2.29236e-11
-9.06031e-06
-2.5403e-11
-9.06031e-06
-2.78772e-11
-9.06031e-06
-3.0343e-11
-9.06031e-06
-3.28003e-11
-9.06031e-06
-3.52463e-11
-9.06031e-06
-3.76819e-11
-9.06031e-06
-4.01013e-11
-9.06031e-06
-4.25045e-11
-9.06031e-06
-4.48895e-11
-9.06032e-06
-4.725e-11
-9.06032e-06
-4.95903e-11
-9.06032e-06
-5.19034e-11
-9.06032e-06
-5.41861e-11
-9.06032e-06
-5.64422e-11
-9.06033e-06
-5.86641e-11
-9.06033e-06
-6.08501e-11
-9.06033e-06
-6.30014e-11
-9.06034e-06
-6.5112e-11
-9.06034e-06
-6.71814e-11
-9.06034e-06
-6.92089e-11
-9.06035e-06
-7.11888e-11
-9.06035e-06
-7.31202e-11
-9.06035e-06
-7.50031e-11
-9.06036e-06
-7.68327e-11
-9.06036e-06
-7.86054e-11
-9.06036e-06
-8.03212e-11
-9.06037e-06
-8.19779e-11
-9.06037e-06
-8.35708e-11
-9.06038e-06
-8.50978e-11
-9.06038e-06
-8.65582e-11
-9.06039e-06
-8.79488e-11
-9.06039e-06
-8.9266e-11
-9.0604e-06
-9.05082e-11
-9.0604e-06
-9.16743e-11
-9.06041e-06
-9.27614e-11
-9.06042e-06
-9.37657e-11
-9.06042e-06
-9.46856e-11
-9.06043e-06
-9.55204e-11
-9.06043e-06
-9.62683e-11
-9.06044e-06
-9.69259e-11
-9.06045e-06
-9.74907e-11
-9.06045e-06
-9.7962e-11
-9.06046e-06
-9.83392e-11
-9.06046e-06
-9.86207e-11
-9.06047e-06
-9.88037e-11
-9.06048e-06
-9.88861e-11
-9.06048e-06
-9.88671e-11
-9.06049e-06
-9.87467e-11
-9.0605e-06
-9.85239e-11
-9.0605e-06
-9.8197e-11
-9.06051e-06
-9.77641e-11
-9.06052e-06
-9.72244e-11
-9.06052e-06
-9.65779e-11
-9.06053e-06
-9.58246e-11
-9.06054e-06
-9.49639e-11
-9.06054e-06
-9.39948e-11
-9.06055e-06
-9.29164e-11
-9.06056e-06
-9.17285e-11
-9.06056e-06
-9.04319e-11
-9.06057e-06
-8.90272e-11
-9.06058e-06
-8.75148e-11
-9.06058e-06
-8.58948e-11
-9.06059e-06
-8.4167e-11
-9.0606e-06
-8.23322e-11
-9.0606e-06
-8.03914e-11
-9.06061e-06
-7.83463e-11
-9.06062e-06
-7.61987e-11
-9.06062e-06
-7.395e-11
-9.06063e-06
-7.16015e-11
-9.06064e-06
-6.91545e-11
-9.06064e-06
-6.66109e-11
-9.06065e-06
-6.39728e-11
-9.06065e-06
-6.12428e-11
-9.06066e-06
-5.84237e-11
-9.06067e-06
-5.55185e-11
-9.06067e-06
-5.25302e-11
-9.06068e-06
-4.94618e-11
-9.06068e-06
-4.63163e-11
-9.06069e-06
-4.30968e-11
-9.06069e-06
-3.98075e-11
-9.0607e-06
-3.64545e-11
-9.0607e-06
-3.30463e-11
-9.0607e-06
-2.9589e-11
-9.06071e-06
-2.60777e-11
-9.06071e-06
-2.24966e-11
-9.06072e-06
-1.8848e-11
-9.06072e-06
-1.51987e-11
-9.06071e-06
-1.16527e-11
-9.06071e-06
-8.10839e-12
-9.06073e-06
-4.19213e-12
-9.06074e-06
-9.06075e-06
-2.33523e-12
-9.10695e-06
-4.89313e-12
-9.10691e-06
-7.52829e-12
-9.10691e-06
-1.02909e-11
-9.10691e-06
-1.2965e-11
-9.10691e-06
-1.55222e-11
-9.10691e-06
-1.80157e-11
-9.10691e-06
-2.04982e-11
-9.10691e-06
-2.29873e-11
-9.10691e-06
-2.54807e-11
-9.10691e-06
-2.79703e-11
-9.10691e-06
-3.04511e-11
-9.10691e-06
-3.29236e-11
-9.10691e-06
-3.53833e-11
-9.10692e-06
-3.78323e-11
-9.10692e-06
-4.02654e-11
-9.10692e-06
-4.26803e-11
-9.10692e-06
-4.50791e-11
-9.10692e-06
-4.74532e-11
-9.10692e-06
-4.98045e-11
-9.10693e-06
-5.21306e-11
-9.10693e-06
-5.44269e-11
-9.10693e-06
-5.66946e-11
-9.10693e-06
-5.89283e-11
-9.10693e-06
-6.11272e-11
-9.10694e-06
-6.32906e-11
-9.10694e-06
-6.54131e-11
-9.10694e-06
-6.74945e-11
-9.10695e-06
-6.95338e-11
-9.10695e-06
-7.15254e-11
-9.10695e-06
-7.34688e-11
-9.10696e-06
-7.53636e-11
-9.10696e-06
-7.72045e-11
-9.10697e-06
-7.89884e-11
-9.10697e-06
-8.07158e-11
-9.10697e-06
-8.2384e-11
-9.10698e-06
-8.39877e-11
-9.10698e-06
-8.5525e-11
-9.10699e-06
-8.69958e-11
-9.10699e-06
-8.83969e-11
-9.107e-06
-8.97242e-11
-9.107e-06
-9.09758e-11
-9.10701e-06
-9.21508e-11
-9.10702e-06
-9.32466e-11
-9.10702e-06
-9.42597e-11
-9.10703e-06
-9.51878e-11
-9.10703e-06
-9.60301e-11
-9.10704e-06
-9.67848e-11
-9.10704e-06
-9.74489e-11
-9.10705e-06
-9.80199e-11
-9.10706e-06
-9.8497e-11
-9.10706e-06
-9.88796e-11
-9.10707e-06
-9.91656e-11
-9.10708e-06
-9.93526e-11
-9.10708e-06
-9.94384e-11
-9.10709e-06
-9.94226e-11
-9.1071e-06
-9.93048e-11
-9.1071e-06
-9.90841e-11
-9.10711e-06
-9.87585e-11
-9.10712e-06
-9.83262e-11
-9.10712e-06
-9.77866e-11
-9.10713e-06
-9.71398e-11
-9.10713e-06
-9.63857e-11
-9.10714e-06
-9.55235e-11
-9.10715e-06
-9.4552e-11
-9.10715e-06
-9.34703e-11
-9.10716e-06
-9.22787e-11
-9.10717e-06
-9.09777e-11
-9.10718e-06
-8.95681e-11
-9.10718e-06
-8.80501e-11
-9.10719e-06
-8.64236e-11
-9.1072e-06
-8.46886e-11
-9.1072e-06
-8.28455e-11
-9.10721e-06
-8.08958e-11
-9.10722e-06
-7.88412e-11
-9.10722e-06
-7.66835e-11
-9.10723e-06
-7.4424e-11
-9.10723e-06
-7.20639e-11
-9.10724e-06
-6.96045e-11
-9.10725e-06
-6.70476e-11
-9.10725e-06
-6.43953e-11
-9.10726e-06
-6.16503e-11
-9.10727e-06
-5.88156e-11
-9.10727e-06
-5.58938e-11
-9.10728e-06
-5.2888e-11
-9.10728e-06
-4.98012e-11
-9.10729e-06
-4.66368e-11
-9.10729e-06
-4.33979e-11
-9.1073e-06
-4.00869e-11
-9.1073e-06
-3.67069e-11
-9.10731e-06
-3.3265e-11
-9.10731e-06
-2.97758e-11
-9.10731e-06
-2.62529e-11
-9.10732e-06
-2.26849e-11
-9.10732e-06
-1.90264e-11
-9.10733e-06
-1.52574e-11
-9.10733e-06
-1.14912e-11
-9.10732e-06
-7.8548e-12
-9.10732e-06
-4.07758e-12
-9.10734e-06
-9.10736e-06
-2.63572e-12
-9.16696e-06
-5.12831e-12
-9.16694e-06
-7.65246e-12
-9.16693e-06
-1.02691e-11
-9.16693e-06
-1.29027e-11
-9.16693e-06
-1.54947e-11
-9.16693e-06
-1.80404e-11
-9.16693e-06
-2.05626e-11
-9.16693e-06
-2.30773e-11
-9.16693e-06
-2.55895e-11
-9.16693e-06
-2.80978e-11
-9.16693e-06
-3.05972e-11
-9.16693e-06
-3.30887e-11
-9.16693e-06
-3.55665e-11
-9.16694e-06
-3.80317e-11
-9.16694e-06
-4.04832e-11
-9.16694e-06
-4.29154e-11
-9.16694e-06
-4.53295e-11
-9.16694e-06
-4.77212e-11
-9.16694e-06
-5.00899e-11
-9.16695e-06
-5.24317e-11
-9.16695e-06
-5.47445e-11
-9.16695e-06
-5.70288e-11
-9.16695e-06
-5.92785e-11
-9.16695e-06
-6.14934e-11
-9.16696e-06
-6.3673e-11
-9.16696e-06
-6.58111e-11
-9.16696e-06
-6.79081e-11
-9.16697e-06
-6.99633e-11
-9.16697e-06
-7.19707e-11
-9.16697e-06
-7.39293e-11
-9.16698e-06
-7.58392e-11
-9.16698e-06
-7.76954e-11
-9.16699e-06
-7.94946e-11
-9.16699e-06
-8.1237e-11
-9.16699e-06
-8.29196e-11
-9.167e-06
-8.45373e-11
-9.167e-06
-8.60887e-11
-9.16701e-06
-8.75735e-11
-9.16701e-06
-8.8988e-11
-9.16702e-06
-9.0328e-11
-9.16702e-06
-9.15918e-11
-9.16703e-06
-9.27789e-11
-9.16704e-06
-9.38865e-11
-9.16704e-06
-9.49107e-11
-9.16705e-06
-9.58492e-11
-9.16705e-06
-9.67011e-11
-9.16706e-06
-9.7465e-11
-9.16707e-06
-9.81378e-11
-9.16707e-06
-9.8717e-11
-9.16708e-06
-9.92015e-11
-9.16708e-06
-9.95907e-11
-9.16709e-06
-9.98826e-11
-9.1671e-06
-1.00075e-10
-9.1671e-06
-1.00165e-10
-9.16711e-06
-1.00154e-10
-9.16712e-06
-1.00039e-10
-9.16712e-06
-9.98209e-11
-9.16713e-06
-9.94969e-11
-9.16714e-06
-9.90655e-11
-9.16714e-06
-9.85262e-11
-9.16715e-06
-9.78789e-11
-9.16716e-06
-9.71235e-11
-9.16716e-06
-9.62589e-11
-9.16717e-06
-9.52841e-11
-9.16718e-06
-9.41982e-11
-9.16718e-06
-9.30016e-11
-9.16719e-06
-9.16949e-11
-9.1672e-06
-9.02787e-11
-9.1672e-06
-8.87532e-11
-9.16721e-06
-8.7118e-11
-9.16722e-06
-8.53732e-11
-9.16722e-06
-8.35193e-11
-9.16723e-06
-8.15579e-11
-9.16724e-06
-7.94908e-11
-9.16724e-06
-7.73197e-11
-9.16725e-06
-7.50458e-11
-9.16726e-06
-7.26703e-11
-9.16726e-06
-7.01945e-11
-9.16727e-06
-6.76199e-11
-9.16727e-06
-6.49489e-11
-9.16728e-06
-6.21843e-11
-9.16729e-06
-5.93289e-11
-9.16729e-06
-5.63855e-11
-9.1673e-06
-5.33567e-11
-9.1673e-06
-5.02452e-11
-9.16731e-06
-4.70547e-11
-9.16731e-06
-4.37894e-11
-9.16732e-06
-4.04534e-11
-9.16732e-06
-3.70474e-11
-9.16733e-06
-3.35705e-11
-9.16733e-06
-3.00284e-11
-9.16733e-06
-2.64441e-11
-9.16734e-06
-2.28444e-11
-9.16734e-06
-1.92101e-11
-9.16735e-06
-1.54595e-11
-9.16735e-06
-1.15823e-11
-9.16735e-06
-7.75415e-12
-9.16735e-06
-3.95062e-12
-9.16735e-06
-9.16738e-06
-2.68043e-12
-9.24046e-06
-5.22921e-12
-9.24044e-06
-7.77258e-12
-9.24044e-06
-1.03354e-11
-9.24044e-06
-1.29283e-11
-9.24044e-06
-1.55214e-11
-9.24044e-06
-1.80954e-11
-9.24044e-06
-2.06509e-11
-9.24044e-06
-2.31945e-11
-9.24044e-06
-2.57304e-11
-9.24044e-06
-2.82615e-11
-9.24044e-06
-3.07824e-11
-9.24044e-06
-3.32948e-11
-9.24045e-06
-3.57957e-11
-9.24045e-06
-3.82821e-11
-9.24045e-06
-4.07534e-11
-9.24045e-06
-4.32074e-11
-9.24045e-06
-4.56425e-11
-9.24045e-06
-4.80542e-11
-9.24045e-06
-5.04437e-11
-9.24046e-06
-5.28059e-11
-9.24046e-06
-5.51386e-11
-9.24046e-06
-5.74433e-11
-9.24046e-06
-5.97132e-11
-9.24047e-06
-6.19477e-11
-9.24047e-06
-6.41468e-11
-9.24047e-06
-6.63046e-11
-9.24047e-06
-6.84212e-11
-9.24048e-06
-7.04958e-11
-9.24048e-06
-7.25221e-11
-9.24048e-06
-7.44996e-11
-9.24049e-06
-7.64286e-11
-9.24049e-06
-7.83038e-11
-9.2405e-06
-8.01214e-11
-9.2405e-06
-8.18818e-11
-9.24051e-06
-8.35822e-11
-9.24051e-06
-8.52177e-11
-9.24051e-06
-8.67864e-11
-9.24052e-06
-8.8288e-11
-9.24052e-06
-8.97187e-11
-9.24053e-06
-9.10743e-11
-9.24054e-06
-9.23535e-11
-9.24054e-06
-9.35556e-11
-9.24055e-06
-9.46775e-11
-9.24055e-06
-9.57151e-11
-9.24056e-06
-9.66661e-11
-9.24056e-06
-9.753e-11
-9.24057e-06
-9.83053e-11
-9.24058e-06
-9.89888e-11
-9.24058e-06
-9.95778e-11
-9.24059e-06
-1.00071e-10
-9.2406e-06
-1.00468e-10
-9.2406e-06
-1.00768e-10
-9.24061e-06
-1.00967e-10
-9.24061e-06
-1.01063e-10
-9.24062e-06
-1.01056e-10
-9.24063e-06
-1.00945e-10
-9.24063e-06
-1.0073e-10
-9.24064e-06
-1.00408e-10
-9.24065e-06
-9.99776e-11
-9.24065e-06
-9.94385e-11
-9.24066e-06
-9.87904e-11
-9.24067e-06
-9.80331e-11
-9.24067e-06
-9.71655e-11
-9.24068e-06
-9.61865e-11
-9.24069e-06
-9.50955e-11
-9.24069e-06
-9.38927e-11
-9.2407e-06
-9.25788e-11
-9.24071e-06
-9.11543e-11
-9.24071e-06
-8.96192e-11
-9.24072e-06
-8.79731e-11
-9.24073e-06
-8.62161e-11
-9.24073e-06
-8.43489e-11
-9.24074e-06
-8.23731e-11
-9.24075e-06
-8.02905e-11
-9.24075e-06
-7.81027e-11
-9.24076e-06
-7.58109e-11
-9.24077e-06
-7.34163e-11
-9.24077e-06
-7.09199e-11
-9.24078e-06
-6.83236e-11
-9.24079e-06
-6.56295e-11
-9.24079e-06
-6.28405e-11
-9.2408e-06
-5.99596e-11
-9.2408e-06
-5.69895e-11
-9.24081e-06
-5.39328e-11
-9.24081e-06
-5.07916e-11
-9.24082e-06
-4.75684e-11
-9.24082e-06
-4.42675e-11
-9.24083e-06
-4.08957e-11
-9.24083e-06
-3.74589e-11
-9.24084e-06
-3.39562e-11
-9.24084e-06
-3.0379e-11
-9.24085e-06
-2.6729e-11
-9.24085e-06
-2.30393e-11
-9.24085e-06
-1.93485e-11
-9.24085e-06
-1.56167e-11
-9.24086e-06
-1.17511e-11
-9.24086e-06
-7.82495e-12
-9.24086e-06
-3.9336e-12
-9.24087e-06
-9.24089e-06
-2.62081e-12
-9.32755e-06
-5.22794e-12
-9.32753e-06
-7.82329e-12
-9.32753e-06
-1.04062e-11
-9.32753e-06
-1.29972e-11
-9.32753e-06
-1.55938e-11
-9.32753e-06
-1.81859e-11
-9.32753e-06
-2.07684e-11
-9.32753e-06
-2.33415e-11
-9.32754e-06
-2.59041e-11
-9.32754e-06
-2.84603e-11
-9.32754e-06
-3.10077e-11
-9.32754e-06
-3.35446e-11
-9.32754e-06
-3.60698e-11
-9.32754e-06
-3.8582e-11
-9.32754e-06
-4.10778e-11
-9.32754e-06
-4.35561e-11
-9.32754e-06
-4.60162e-11
-9.32755e-06
-4.8452e-11
-9.32755e-06
-5.08655e-11
-9.32755e-06
-5.32521e-11
-9.32755e-06
-5.5609e-11
-9.32755e-06
-5.79373e-11
-9.32756e-06
-6.02306e-11
-9.32756e-06
-6.24887e-11
-9.32756e-06
-6.47113e-11
-9.32756e-06
-6.68923e-11
-9.32757e-06
-6.90319e-11
-9.32757e-06
-7.11291e-11
-9.32757e-06
-7.31782e-11
-9.32758e-06
-7.51784e-11
-9.32758e-06
-7.71299e-11
-9.32759e-06
-7.90271e-11
-9.32759e-06
-8.08663e-11
-9.32759e-06
-8.26482e-11
-9.3276e-06
-8.437e-11
-9.3276e-06
-8.60263e-11
-9.32761e-06
-8.76153e-11
-9.32761e-06
-8.91364e-11
-9.32762e-06
-9.05863e-11
-9.32762e-06
-9.19607e-11
-9.32763e-06
-9.3258e-11
-9.32763e-06
-9.44776e-11
-9.32764e-06
-9.56161e-11
-9.32765e-06
-9.66694e-11
-9.32765e-06
-9.76353e-11
-9.32766e-06
-9.85135e-11
-9.32766e-06
-9.93022e-11
-9.32767e-06
-9.99983e-11
-9.32768e-06
-1.00599e-10
-9.32768e-06
-1.01103e-10
-9.32769e-06
-1.01509e-10
-9.3277e-06
-1.01817e-10
-9.3277e-06
-1.02024e-10
-9.32771e-06
-1.02127e-10
-9.32771e-06
-1.02125e-10
-9.32772e-06
-1.02019e-10
-9.32773e-06
-1.01807e-10
-9.32773e-06
-1.01487e-10
-9.32774e-06
-1.01058e-10
-9.32775e-06
-1.00519e-10
-9.32775e-06
-9.987e-11
-9.32776e-06
-9.91102e-11
-9.32777e-06
-9.82388e-11
-9.32777e-06
-9.72549e-11
-9.32778e-06
-9.61577e-11
-9.32779e-06
-9.49474e-11
-9.32779e-06
-9.36248e-11
-9.3278e-06
-9.21902e-11
-9.32781e-06
-9.06436e-11
-9.32782e-06
-8.89845e-11
-9.32782e-06
-8.72131e-11
-9.32783e-06
-8.533e-11
-9.32784e-06
-8.3337e-11
-9.32784e-06
-8.12359e-11
-9.32785e-06
-7.90282e-11
-9.32786e-06
-7.67151e-11
-9.32786e-06
-7.42976e-11
-9.32787e-06
-7.17768e-11
-9.32787e-06
-6.91546e-11
-9.32788e-06
-6.64331e-11
-9.32789e-06
-6.36153e-11
-9.32789e-06
-6.07039e-11
-9.3279e-06
-5.77018e-11
-9.3279e-06
-5.46118e-11
-9.32791e-06
-5.14364e-11
-9.32791e-06
-4.81771e-11
-9.32792e-06
-4.48361e-11
-9.32792e-06
-4.14179e-11
-9.32793e-06
-3.79324e-11
-9.32793e-06
-3.43893e-11
-9.32794e-06
-3.07855e-11
-9.32794e-06
-2.71039e-11
-9.32795e-06
-2.33442e-11
-9.32795e-06
-1.95524e-11
-9.32795e-06
-1.57596e-11
-9.32795e-06
-1.18963e-11
-9.32796e-06
-7.94208e-12
-9.32796e-06
-3.97891e-12
-9.32796e-06
-9.32798e-06
-2.5872e-12
-9.42834e-06
-5.21859e-12
-9.42832e-06
-7.84805e-12
-9.42832e-06
-1.04686e-11
-9.42832e-06
-1.30832e-11
-9.42832e-06
-1.56975e-11
-9.42832e-06
-1.83106e-11
-9.42832e-06
-2.09174e-11
-9.42832e-06
-2.35188e-11
-9.42832e-06
-2.61117e-11
-9.42832e-06
-2.8696e-11
-9.42832e-06
-3.12718e-11
-9.42832e-06
-3.38376e-11
-9.42832e-06
-3.63905e-11
-9.42832e-06
-3.89311e-11
-9.42832e-06
-4.14556e-11
-9.42833e-06
-4.39618e-11
-9.42833e-06
-4.64498e-11
-9.42833e-06
-4.89138e-11
-9.42833e-06
-5.13553e-11
-9.42833e-06
-5.37696e-11
-9.42834e-06
-5.61538e-11
-9.42834e-06
-5.85096e-11
-9.42834e-06
-6.08303e-11
-9.42834e-06
-6.31155e-11
-9.42835e-06
-6.53651e-11
-9.42835e-06
-6.75726e-11
-9.42835e-06
-6.97385e-11
-9.42836e-06
-7.18623e-11
-9.42836e-06
-7.39376e-11
-9.42836e-06
-7.59637e-11
-9.42837e-06
-7.79409e-11
-9.42837e-06
-7.98634e-11
-9.42837e-06
-8.17277e-11
-9.42838e-06
-8.35344e-11
-9.42838e-06
-8.52807e-11
-9.42839e-06
-8.69607e-11
-9.42839e-06
-8.85728e-11
-9.4284e-06
-9.01165e-11
-9.4284e-06
-9.15886e-11
-9.42841e-06
-9.29845e-11
-9.42841e-06
-9.43025e-11
-9.42842e-06
-9.55419e-11
-9.42842e-06
-9.66994e-11
-9.42843e-06
-9.77708e-11
-9.42844e-06
-9.87539e-11
-9.42844e-06
-9.96484e-11
-9.42845e-06
-1.00452e-10
-9.42845e-06
-1.01163e-10
-9.42846e-06
-1.01776e-10
-9.42847e-06
-1.02292e-10
-9.42847e-06
-1.0271e-10
-9.42848e-06
-1.03028e-10
-9.42849e-06
-1.03243e-10
-9.42849e-06
-1.03353e-10
-9.4285e-06
-1.03358e-10
-9.42851e-06
-1.03257e-10
-9.42851e-06
-1.03048e-10
-9.42852e-06
-1.02731e-10
-9.42853e-06
-1.02303e-10
-9.42853e-06
-1.01764e-10
-9.42854e-06
-1.01113e-10
-9.42855e-06
-1.00351e-10
-9.42855e-06
-9.94749e-11
-9.42856e-06
-9.84851e-11
-9.42857e-06
-9.73807e-11
-9.42857e-06
-9.61618e-11
-9.42858e-06
-9.48289e-11
-9.42859e-06
-9.33825e-11
-9.42859e-06
-9.18223e-11
-9.4286e-06
-9.01481e-11
-9.42861e-06
-8.83599e-11
-9.42861e-06
-8.64586e-11
-9.42862e-06
-8.44457e-11
-9.42863e-06
-8.2323e-11
-9.42863e-06
-8.00922e-11
-9.42864e-06
-7.77543e-11
-9.42865e-06
-7.53103e-11
-9.42865e-06
-7.27613e-11
-9.42866e-06
-7.01092e-11
-9.42867e-06
-6.73562e-11
-9.42867e-06
-6.45052e-11
-9.42868e-06
-6.15588e-11
-9.42868e-06
-5.85197e-11
-9.42869e-06
-5.53903e-11
-9.42869e-06
-5.21741e-11
-9.4287e-06
-4.88741e-11
-9.4287e-06
-4.54918e-11
-9.42871e-06
-4.20278e-11
-9.42871e-06
-3.84864e-11
-9.42872e-06
-3.48806e-11
-9.42872e-06
-3.1224e-11
-9.42873e-06
-2.75098e-11
-9.42873e-06
-2.37149e-11
-9.42873e-06
-1.98483e-11
-9.42874e-06
-1.59612e-11
-9.42874e-06
-1.20459e-11
-9.42874e-06
-8.06137e-12
-9.42874e-06
-4.04146e-12
-9.42875e-06
-9.42877e-06
-2.60082e-12
-9.54294e-06
-5.24139e-12
-9.54292e-06
-7.88781e-12
-9.54292e-06
-1.05376e-11
-9.54292e-06
-1.31829e-11
-9.54292e-06
-1.58237e-11
-9.54292e-06
-1.84634e-11
-9.54292e-06
-2.10986e-11
-9.54292e-06
-2.37285e-11
-9.54292e-06
-2.63527e-11
-9.54292e-06
-2.89687e-11
-9.54292e-06
-3.15753e-11
-9.54292e-06
-3.41731e-11
-9.54292e-06
-3.67579e-11
-9.54292e-06
-3.93298e-11
-9.54293e-06
-4.18859e-11
-9.54293e-06
-4.44238e-11
-9.54293e-06
-4.69435e-11
-9.54293e-06
-4.9439e-11
-9.54293e-06
-5.1912e-11
-9.54293e-06
-5.43575e-11
-9.54294e-06
-5.67727e-11
-9.54294e-06
-5.91597e-11
-9.54294e-06
-6.15111e-11
-9.54294e-06
-6.38268e-11
-9.54295e-06
-6.61067e-11
-9.54295e-06
-6.83443e-11
-9.54295e-06
-7.05402e-11
-9.54296e-06
-7.26939e-11
-9.54296e-06
-7.47987e-11
-9.54296e-06
-7.68539e-11
-9.54297e-06
-7.88599e-11
-9.54297e-06
-8.08111e-11
-9.54297e-06
-8.27037e-11
-9.54298e-06
-8.45384e-11
-9.54298e-06
-8.63119e-11
-9.54299e-06
-8.80186e-11
-9.54299e-06
-8.96567e-11
-9.543e-06
-9.12261e-11
-9.543e-06
-9.27232e-11
-9.54301e-06
-9.41431e-11
-9.54301e-06
-9.54843e-11
-9.54302e-06
-9.67459e-11
-9.54303e-06
-9.79247e-11
-9.54303e-06
-9.90165e-11
-9.54304e-06
-1.00019e-10
-9.54304e-06
-1.00932e-10
-9.54305e-06
-1.01753e-10
-9.54306e-06
-1.02479e-10
-9.54306e-06
-1.03107e-10
-9.54307e-06
-1.03636e-10
-9.54307e-06
-1.04066e-10
-9.54308e-06
-1.04395e-10
-9.54309e-06
-1.0462e-10
-9.54309e-06
-1.04739e-10
-9.5431e-06
-1.0475e-10
-9.54311e-06
-1.04654e-10
-9.54311e-06
-1.0445e-10
-9.54312e-06
-1.04136e-10
-9.54313e-06
-1.0371e-10
-9.54313e-06
-1.0317e-10
-9.54314e-06
-1.02517e-10
-9.54315e-06
-1.01751e-10
-9.54315e-06
-1.0087e-10
-9.54316e-06
-9.98734e-11
-9.54317e-06
-9.87607e-11
-9.54317e-06
-9.75318e-11
-9.54318e-06
-9.61871e-11
-9.54319e-06
-9.47271e-11
-9.54319e-06
-9.31515e-11
-9.5432e-06
-9.14601e-11
-9.54321e-06
-8.96529e-11
-9.54322e-06
-8.77307e-11
-9.54322e-06
-8.56952e-11
-9.54323e-06
-8.35481e-11
-9.54324e-06
-8.1291e-11
-9.54324e-06
-7.8925e-11
-9.54325e-06
-7.64509e-11
-9.54326e-06
-7.387e-11
-9.54326e-06
-7.11839e-11
-9.54327e-06
-6.83952e-11
-9.54327e-06
-6.55067e-11
-9.54328e-06
-6.25211e-11
-9.54329e-06
-5.94406e-11
-9.54329e-06
-5.62672e-11
-9.5433e-06
-5.30037e-11
-9.5433e-06
-4.96543e-11
-9.54331e-06
-4.62236e-11
-9.54331e-06
-4.27131e-11
-9.54332e-06
-3.91216e-11
-9.54332e-06
-3.54528e-11
-9.54332e-06
-3.17228e-11
-9.54333e-06
-2.79458e-11
-9.54333e-06
-2.41089e-11
-9.54334e-06
-2.0193e-11
-9.54334e-06
-1.62252e-11
-9.54334e-06
-1.22306e-11
-9.54334e-06
-8.18943e-12
-9.54335e-06
-4.10917e-12
-9.54335e-06
-9.54337e-06
-2.63285e-12
-9.6715e-06
-5.28958e-12
-9.67148e-06
-7.95345e-12
-9.67148e-06
-1.06251e-11
-9.67148e-06
-1.32995e-11
-9.67148e-06
-1.59713e-11
-9.67148e-06
-1.86412e-11
-9.67148e-06
-2.13086e-11
-9.67148e-06
-2.39709e-11
-9.67148e-06
-2.66277e-11
-9.67148e-06
-2.9278e-11
-9.67148e-06
-3.19191e-11
-9.67148e-06
-3.45514e-11
-9.67148e-06
-3.7171e-11
-9.67148e-06
-3.97778e-11
-9.67149e-06
-4.23689e-11
-9.67149e-06
-4.49419e-11
-9.67149e-06
-4.74968e-11
-9.67149e-06
-5.00271e-11
-9.67149e-06
-5.25349e-11
-9.67149e-06
-5.50151e-11
-9.6715e-06
-5.74651e-11
-9.6715e-06
-5.98865e-11
-9.6715e-06
-6.2272e-11
-9.6715e-06
-6.46216e-11
-9.67151e-06
-6.69353e-11
-9.67151e-06
-6.92064e-11
-9.67151e-06
-7.14357e-11
-9.67152e-06
-7.36224e-11
-9.67152e-06
-7.57598e-11
-9.67152e-06
-7.78474e-11
-9.67153e-06
-7.98857e-11
-9.67153e-06
-8.18687e-11
-9.67153e-06
-8.37927e-11
-9.67154e-06
-8.56581e-11
-9.67154e-06
-8.74619e-11
-9.67155e-06
-8.91982e-11
-9.67155e-06
-9.08653e-11
-9.67156e-06
-9.2463e-11
-9.67156e-06
-9.39876e-11
-9.67157e-06
-9.54341e-11
-9.67157e-06
-9.68009e-11
-9.67158e-06
-9.80871e-11
-9.67159e-06
-9.92896e-11
-9.67159e-06
-1.00404e-10
-9.6716e-06
-1.01428e-10
-9.6716e-06
-1.02361e-10
-9.67161e-06
-1.03201e-10
-9.67162e-06
-1.03944e-10
-9.67162e-06
-1.04588e-10
-9.67163e-06
-1.05133e-10
-9.67164e-06
-1.05576e-10
-9.67164e-06
-1.05917e-10
-9.67165e-06
-1.06153e-10
-9.67165e-06
-1.0628e-10
-9.67166e-06
-1.06299e-10
-9.67167e-06
-1.06209e-10
-9.67167e-06
-1.0601e-10
-9.67168e-06
-1.05698e-10
-9.67169e-06
-1.05273e-10
-9.67169e-06
-1.04733e-10
-9.6717e-06
-1.04077e-10
-9.67171e-06
-1.03307e-10
-9.67171e-06
-1.0242e-10
-9.67172e-06
-1.01416e-10
-9.67173e-06
-1.00294e-10
-9.67174e-06
-9.90539e-11
-9.67174e-06
-9.76959e-11
-9.67175e-06
-9.62205e-11
-9.67176e-06
-9.46277e-11
-9.67176e-06
-9.2917e-11
-9.67177e-06
-9.10885e-11
-9.67178e-06
-8.9143e-11
-9.67178e-06
-8.70822e-11
-9.67179e-06
-8.49077e-11
-9.6718e-06
-8.26212e-11
-9.6718e-06
-8.02237e-11
-9.67181e-06
-7.77161e-11
-9.67182e-06
-7.50996e-11
-9.67182e-06
-7.23758e-11
-9.67183e-06
-6.95471e-11
-9.67184e-06
-6.66165e-11
-9.67184e-06
-6.35869e-11
-9.67185e-06
-6.04607e-11
-9.67185e-06
-5.72398e-11
-9.67186e-06
-5.39254e-11
-9.67186e-06
-5.05206e-11
-9.67187e-06
-4.70313e-11
-9.67187e-06
-4.34637e-11
-9.67188e-06
-3.98192e-11
-9.67188e-06
-3.60947e-11
-9.67189e-06
-3.2295e-11
-9.67189e-06
-2.84384e-11
-9.67189e-06
-2.45332e-11
-9.6719e-06
-2.05628e-11
-9.6719e-06
-1.65276e-11
-9.6719e-06
-1.24515e-11
-9.67191e-06
-8.33572e-12
-9.67191e-06
-4.18377e-12
-9.67191e-06
-9.67193e-06
-2.66366e-12
-9.81418e-06
-5.34593e-12
-9.81416e-06
-8.03617e-12
-9.81416e-06
-1.07334e-11
-9.81416e-06
-1.34362e-11
-9.81416e-06
-1.61408e-11
-9.81416e-06
-1.88441e-11
-9.81416e-06
-2.15459e-11
-9.81416e-06
-2.42441e-11
-9.81416e-06
-2.6937e-11
-9.81416e-06
-2.96241e-11
-9.81416e-06
-3.23026e-11
-9.81416e-06
-3.49724e-11
-9.81416e-06
-3.76299e-11
-9.81416e-06
-4.0275e-11
-9.81416e-06
-4.29045e-11
-9.81417e-06
-4.55158e-11
-9.81417e-06
-4.81089e-11
-9.81417e-06
-5.06776e-11
-9.81417e-06
-5.32237e-11
-9.81417e-06
-5.57421e-11
-9.81418e-06
-5.823e-11
-9.81418e-06
-6.06891e-11
-9.81418e-06
-6.31121e-11
-9.81418e-06
-6.5499e-11
-9.81419e-06
-6.78498e-11
-9.81419e-06
-7.01578e-11
-9.81419e-06
-7.24236e-11
-9.8142e-06
-7.46465e-11
-9.8142e-06
-7.68198e-11
-9.8142e-06
-7.8943e-11
-9.81421e-06
-8.10166e-11
-9.81421e-06
-8.30346e-11
-9.81421e-06
-8.49927e-11
-9.81422e-06
-8.68919e-11
-9.81422e-06
-8.87288e-11
-9.81423e-06
-9.04976e-11
-9.81423e-06
-9.21965e-11
-9.81424e-06
-9.38252e-11
-9.81424e-06
-9.53799e-11
-9.81425e-06
-9.68554e-11
-9.81425e-06
-9.82501e-11
-9.81426e-06
-9.95633e-11
-9.81427e-06
-1.00792e-10
-9.81427e-06
-1.01931e-10
-9.81428e-06
-1.02978e-10
-9.81428e-06
-1.03932e-10
-9.81429e-06
-1.04793e-10
-9.8143e-06
-1.05556e-10
-9.8143e-06
-1.06218e-10
-9.81431e-06
-1.06778e-10
-9.81432e-06
-1.07236e-10
-9.81432e-06
-1.0759e-10
-9.81433e-06
-1.07837e-10
-9.81433e-06
-1.07974e-10
-9.81434e-06
-1.08001e-10
-9.81435e-06
-1.07918e-10
-9.81435e-06
-1.07723e-10
-9.81436e-06
-1.07415e-10
-9.81437e-06
-1.0699e-10
-9.81437e-06
-1.06449e-10
-9.81438e-06
-1.05791e-10
-9.81439e-06
-1.05016e-10
-9.8144e-06
-1.04123e-10
-9.8144e-06
-1.0311e-10
-9.81441e-06
-1.01978e-10
-9.81442e-06
-1.00725e-10
-9.81442e-06
-9.93518e-11
-9.81443e-06
-9.78595e-11
-9.81444e-06
-9.62474e-11
-9.81444e-06
-9.45154e-11
-9.81445e-06
-9.26633e-11
-9.81446e-06
-9.06921e-11
-9.81446e-06
-8.86033e-11
-9.81447e-06
-8.63986e-11
-9.81448e-06
-8.40796e-11
-9.81448e-06
-8.16474e-11
-9.81449e-06
-7.91028e-11
-9.8145e-06
-7.6447e-11
-9.8145e-06
-7.36817e-11
-9.81451e-06
-7.08094e-11
-9.81452e-06
-6.78325e-11
-9.81452e-06
-6.4754e-11
-9.81453e-06
-6.15767e-11
-9.81453e-06
-5.83031e-11
-9.81454e-06
-5.49346e-11
-9.81454e-06
-5.14726e-11
-9.81455e-06
-4.79203e-11
-9.81455e-06
-4.42852e-11
-9.81456e-06
-4.05749e-11
-9.81456e-06
-3.67897e-11
-9.81457e-06
-3.29261e-11
-9.81457e-06
-2.89922e-11
-9.81457e-06
-2.50042e-11
-9.81458e-06
-2.09611e-11
-9.81458e-06
-1.68556e-11
-9.81458e-06
-1.26995e-11
-9.81459e-06
-8.50092e-12
-9.81459e-06
-4.26706e-12
-9.81459e-06
-9.81462e-06
-2.69218e-12
-9.97116e-06
-5.40555e-12
-9.97113e-06
-8.12786e-12
-9.97113e-06
-1.08577e-11
-9.97113e-06
-1.35929e-11
-9.97113e-06
-1.6332e-11
-9.97113e-06
-1.90718e-11
-9.97113e-06
-2.18109e-11
-9.97113e-06
-2.45477e-11
-9.97113e-06
-2.72798e-11
-9.97113e-06
-3.00067e-11
-9.97114e-06
-3.27254e-11
-9.97114e-06
-3.5436e-11
-9.97114e-06
-3.81347e-11
-9.97114e-06
-4.08211e-11
-9.97114e-06
-4.3492e-11
-9.97114e-06
-4.61449e-11
-9.97114e-06
-4.87797e-11
-9.97115e-06
-5.139e-11
-9.97115e-06
-5.39778e-11
-9.97115e-06
-5.65377e-11
-9.97115e-06
-5.90666e-11
-9.97115e-06
-6.15669e-11
-9.97116e-06
-6.40307e-11
-9.97116e-06
-6.64582e-11
-9.97116e-06
-6.88495e-11
-9.97116e-06
-7.11974e-11
-9.97117e-06
-7.35028e-11
-9.97117e-06
-7.57651e-11
-9.97117e-06
-7.79775e-11
-9.97118e-06
-8.01394e-11
-9.97118e-06
-8.22514e-11
-9.97119e-06
-8.43071e-11
-9.97119e-06
-8.63024e-11
-9.97119e-06