/*--------------------------------*- C++ -*----------------------------------*\
| =========                 |                                                 |
| \\      /  F ield         | OpenFOAM: The Open Source CFD Toolbox           |
|  \\    /   O peration     | Version:  2.3.x                                 |
|   \\  /    A nd           | Web:      www.OpenFOAM.org                      |
|    \\/     M anipulation  |                                                 |
\*---------------------------------------------------------------------------*/
FoamFile
{
    version     2.0;
    format      ascii;
    class       volVectorField;
    location    "0.02";
    object      U;
}
// * * * * * * * * * * * * * * * * * * * * * * * * * * * * * * * * * * * * * //

dimensions      [0 1 -1 0 0 0 0];

internalField   nonuniform List<vector> 
50000
(
(-1.28178e-12 -8.8829e-06 0)
(-3.7358e-12 -8.88287e-06 0)
(-6.41571e-12 -8.88289e-06 0)
(-9.34049e-12 -8.8829e-06 0)
(-1.19764e-11 -8.88288e-06 0)
(-1.43254e-11 -8.88286e-06 0)
(-1.66075e-11 -8.88286e-06 0)
(-1.89476e-11 -8.88286e-06 0)
(-2.13515e-11 -8.88286e-06 0)
(-2.3782e-11 -8.88286e-06 0)
(-2.62122e-11 -8.88287e-06 0)
(-2.86339e-11 -8.88287e-06 0)
(-3.10472e-11 -8.88287e-06 0)
(-3.34526e-11 -8.88287e-06 0)
(-3.58482e-11 -8.88287e-06 0)
(-3.82311e-11 -8.88287e-06 0)
(-4.05987e-11 -8.88287e-06 0)
(-4.29485e-11 -8.88287e-06 0)
(-4.5278e-11 -8.88288e-06 0)
(-4.75858e-11 -8.88288e-06 0)
(-4.9869e-11 -8.88288e-06 0)
(-5.21253e-11 -8.88288e-06 0)
(-5.43534e-11 -8.88288e-06 0)
(-5.65502e-11 -8.88289e-06 0)
(-5.87142e-11 -8.88289e-06 0)
(-6.08433e-11 -8.88289e-06 0)
(-6.29339e-11 -8.8829e-06 0)
(-6.49852e-11 -8.8829e-06 0)
(-6.69963e-11 -8.8829e-06 0)
(-6.89618e-11 -8.88291e-06 0)
(-7.088e-11 -8.88291e-06 0)
(-7.27517e-11 -8.88291e-06 0)
(-7.45729e-11 -8.88292e-06 0)
(-7.63386e-11 -8.88292e-06 0)
(-7.80489e-11 -8.88293e-06 0)
(-7.97031e-11 -8.88293e-06 0)
(-8.12963e-11 -8.88293e-06 0)
(-8.28248e-11 -8.88294e-06 0)
(-8.42885e-11 -8.88294e-06 0)
(-8.56861e-11 -8.88295e-06 0)
(-8.70132e-11 -8.88296e-06 0)
(-8.82666e-11 -8.88296e-06 0)
(-8.94454e-11 -8.88297e-06 0)
(-9.05486e-11 -8.88297e-06 0)
(-9.1573e-11 -8.88298e-06 0)
(-9.2515e-11 -8.88298e-06 0)
(-9.33732e-11 -8.88299e-06 0)
(-9.41467e-11 -8.883e-06 0)
(-9.48338e-11 -8.883e-06 0)
(-9.54315e-11 -8.88301e-06 0)
(-9.59375e-11 -8.88301e-06 0)
(-9.63509e-11 -8.88302e-06 0)
(-9.66708e-11 -8.88303e-06 0)
(-9.68957e-11 -8.88303e-06 0)
(-9.70233e-11 -8.88304e-06 0)
(-9.70519e-11 -8.88304e-06 0)
(-9.69806e-11 -8.88305e-06 0)
(-9.68088e-11 -8.88306e-06 0)
(-9.65357e-11 -8.88306e-06 0)
(-9.61598e-11 -8.88307e-06 0)
(-9.56798e-11 -8.88308e-06 0)
(-9.50949e-11 -8.88308e-06 0)
(-9.44048e-11 -8.88309e-06 0)
(-9.36095e-11 -8.8831e-06 0)
(-9.27082e-11 -8.8831e-06 0)
(-9.17005e-11 -8.88311e-06 0)
(-9.05857e-11 -8.88312e-06 0)
(-8.93639e-11 -8.88312e-06 0)
(-8.80355e-11 -8.88313e-06 0)
(-8.66011e-11 -8.88314e-06 0)
(-8.5061e-11 -8.88314e-06 0)
(-8.34155e-11 -8.88315e-06 0)
(-8.16649e-11 -8.88316e-06 0)
(-7.98101e-11 -8.88316e-06 0)
(-7.78523e-11 -8.88317e-06 0)
(-7.57929e-11 -8.88318e-06 0)
(-7.36335e-11 -8.88318e-06 0)
(-7.13756e-11 -8.88319e-06 0)
(-6.90206e-11 -8.88319e-06 0)
(-6.65703e-11 -8.8832e-06 0)
(-6.40265e-11 -8.88321e-06 0)
(-6.13915e-11 -8.88321e-06 0)
(-5.8668e-11 -8.88322e-06 0)
(-5.58588e-11 -8.88322e-06 0)
(-5.29667e-11 -8.88323e-06 0)
(-4.99948e-11 -8.88323e-06 0)
(-4.69462e-11 -8.88324e-06 0)
(-4.38248e-11 -8.88324e-06 0)
(-4.06347e-11 -8.88325e-06 0)
(-3.73808e-11 -8.88325e-06 0)
(-3.40668e-11 -8.88326e-06 0)
(-3.06952e-11 -8.88326e-06 0)
(-2.727e-11 -8.88326e-06 0)
(-2.38057e-11 -8.88326e-06 0)
(-2.03357e-11 -8.88327e-06 0)
(-1.68955e-11 -8.88328e-06 0)
(-1.34647e-11 -8.88328e-06 0)
(-9.91347e-12 -8.88327e-06 0)
(-6.15273e-12 -8.88324e-06 0)
(-2.11146e-12 -8.88321e-06 0)
(-1.17346e-12 -8.8959e-06 0)
(-3.5473e-12 -8.89589e-06 0)
(-6.28922e-12 -8.8959e-06 0)
(-9.27246e-12 -8.89591e-06 0)
(-1.1938e-11 -8.8959e-06 0)
(-1.42987e-11 -8.8959e-06 0)
(-1.65923e-11 -8.8959e-06 0)
(-1.89463e-11 -8.8959e-06 0)
(-2.13629e-11 -8.8959e-06 0)
(-2.3803e-11 -8.8959e-06 0)
(-2.62399e-11 -8.8959e-06 0)
(-2.86669e-11 -8.8959e-06 0)
(-3.10852e-11 -8.8959e-06 0)
(-3.34953e-11 -8.8959e-06 0)
(-3.58957e-11 -8.8959e-06 0)
(-3.82831e-11 -8.8959e-06 0)
(-4.06549e-11 -8.89591e-06 0)
(-4.30094e-11 -8.89591e-06 0)
(-4.53432e-11 -8.89591e-06 0)
(-4.76554e-11 -8.89591e-06 0)
(-4.99429e-11 -8.89591e-06 0)
(-5.22031e-11 -8.89592e-06 0)
(-5.44359e-11 -8.89592e-06 0)
(-5.66372e-11 -8.89592e-06 0)
(-5.88043e-11 -8.89592e-06 0)
(-6.09378e-11 -8.89593e-06 0)
(-6.30334e-11 -8.89593e-06 0)
(-6.50881e-11 -8.89593e-06 0)
(-6.71025e-11 -8.89594e-06 0)
(-6.90729e-11 -8.89594e-06 0)
(-7.09955e-11 -8.89594e-06 0)
(-7.28705e-11 -8.89595e-06 0)
(-7.46953e-11 -8.89595e-06 0)
(-7.64655e-11 -8.89595e-06 0)
(-7.818e-11 -8.89596e-06 0)
(-7.98376e-11 -8.89596e-06 0)
(-8.14343e-11 -8.89597e-06 0)
(-8.29668e-11 -8.89597e-06 0)
(-8.44344e-11 -8.89598e-06 0)
(-8.58355e-11 -8.89598e-06 0)
(-8.71657e-11 -8.89599e-06 0)
(-8.84222e-11 -8.89599e-06 0)
(-8.96046e-11 -8.896e-06 0)
(-9.07112e-11 -8.89601e-06 0)
(-9.17384e-11 -8.89601e-06 0)
(-9.26829e-11 -8.89602e-06 0)
(-9.35437e-11 -8.89602e-06 0)
(-9.432e-11 -8.89603e-06 0)
(-9.50097e-11 -8.89603e-06 0)
(-9.56095e-11 -8.89604e-06 0)
(-9.61172e-11 -8.89605e-06 0)
(-9.65323e-11 -8.89605e-06 0)
(-9.68542e-11 -8.89606e-06 0)
(-9.70809e-11 -8.89607e-06 0)
(-9.72099e-11 -8.89607e-06 0)
(-9.72393e-11 -8.89608e-06 0)
(-9.71688e-11 -8.89609e-06 0)
(-9.69979e-11 -8.89609e-06 0)
(-9.67257e-11 -8.8961e-06 0)
(-9.63503e-11 -8.8961e-06 0)
(-9.58704e-11 -8.89611e-06 0)
(-9.52853e-11 -8.89612e-06 0)
(-9.4595e-11 -8.89612e-06 0)
(-9.37993e-11 -8.89613e-06 0)
(-9.28977e-11 -8.89614e-06 0)
(-9.18891e-11 -8.89614e-06 0)
(-9.07732e-11 -8.89615e-06 0)
(-8.95499e-11 -8.89616e-06 0)
(-8.82199e-11 -8.89616e-06 0)
(-8.67838e-11 -8.89617e-06 0)
(-8.52418e-11 -8.89618e-06 0)
(-8.35941e-11 -8.89618e-06 0)
(-8.1841e-11 -8.89619e-06 0)
(-7.99833e-11 -8.8962e-06 0)
(-7.80223e-11 -8.8962e-06 0)
(-7.59595e-11 -8.89621e-06 0)
(-7.37966e-11 -8.89622e-06 0)
(-7.15351e-11 -8.89622e-06 0)
(-6.91762e-11 -8.89623e-06 0)
(-6.67216e-11 -8.89623e-06 0)
(-6.41732e-11 -8.89624e-06 0)
(-6.15333e-11 -8.89625e-06 0)
(-5.88046e-11 -8.89625e-06 0)
(-5.59899e-11 -8.89626e-06 0)
(-5.30922e-11 -8.89626e-06 0)
(-5.01144e-11 -8.89627e-06 0)
(-4.70595e-11 -8.89627e-06 0)
(-4.39309e-11 -8.89628e-06 0)
(-4.07331e-11 -8.89628e-06 0)
(-3.74715e-11 -8.89628e-06 0)
(-3.41511e-11 -8.89629e-06 0)
(-3.07743e-11 -8.89629e-06 0)
(-2.73391e-11 -8.8963e-06 0)
(-2.38484e-11 -8.8963e-06 0)
(-2.03306e-11 -8.8963e-06 0)
(-1.68476e-11 -8.89631e-06 0)
(-1.34333e-11 -8.89632e-06 0)
(-9.95651e-12 -8.89633e-06 0)
(-6.21741e-12 -8.89631e-06 0)
(-2.13279e-12 -8.8963e-06 0)
(-1.03833e-12 -8.92214e-06 0)
(-3.36651e-12 -8.92212e-06 0)
(-6.10171e-12 -8.92212e-06 0)
(-8.97865e-12 -8.92213e-06 0)
(-1.16964e-11 -8.92213e-06 0)
(-1.41846e-11 -8.92213e-06 0)
(-1.6574e-11 -8.92213e-06 0)
(-1.89705e-11 -8.92213e-06 0)
(-2.14e-11 -8.92213e-06 0)
(-2.38469e-11 -8.92213e-06 0)
(-2.62933e-11 -8.92213e-06 0)
(-2.87316e-11 -8.92213e-06 0)
(-3.11612e-11 -8.92213e-06 0)
(-3.35811e-11 -8.92213e-06 0)
(-3.59906e-11 -8.92214e-06 0)
(-3.83869e-11 -8.92214e-06 0)
(-4.07673e-11 -8.92214e-06 0)
(-4.31306e-11 -8.92214e-06 0)
(-4.54729e-11 -8.92214e-06 0)
(-4.77931e-11 -8.92214e-06 0)
(-5.00899e-11 -8.92215e-06 0)
(-5.23583e-11 -8.92215e-06 0)
(-5.45986e-11 -8.92215e-06 0)
(-5.68088e-11 -8.92215e-06 0)
(-5.89844e-11 -8.92216e-06 0)
(-6.11254e-11 -8.92216e-06 0)
(-6.3229e-11 -8.92216e-06 0)
(-6.52921e-11 -8.92217e-06 0)
(-6.73144e-11 -8.92217e-06 0)
(-6.92925e-11 -8.92217e-06 0)
(-7.1223e-11 -8.92218e-06 0)
(-7.31058e-11 -8.92218e-06 0)
(-7.49386e-11 -8.92218e-06 0)
(-7.67167e-11 -8.92219e-06 0)
(-7.84386e-11 -8.92219e-06 0)
(-8.01036e-11 -8.9222e-06 0)
(-8.17078e-11 -8.9222e-06 0)
(-8.32478e-11 -8.92221e-06 0)
(-8.47225e-11 -8.92221e-06 0)
(-8.61301e-11 -8.92222e-06 0)
(-8.7467e-11 -8.92222e-06 0)
(-8.87303e-11 -8.92223e-06 0)
(-8.99192e-11 -8.92223e-06 0)
(-9.10318e-11 -8.92224e-06 0)
(-9.20645e-11 -8.92224e-06 0)
(-9.30144e-11 -8.92225e-06 0)
(-9.38807e-11 -8.92226e-06 0)
(-9.46623e-11 -8.92226e-06 0)
(-9.53564e-11 -8.92227e-06 0)
(-9.59601e-11 -8.92227e-06 0)
(-9.64716e-11 -8.92228e-06 0)
(-9.68906e-11 -8.92229e-06 0)
(-9.72162e-11 -8.92229e-06 0)
(-9.74459e-11 -8.9223e-06 0)
(-9.75772e-11 -8.92231e-06 0)
(-9.76087e-11 -8.92231e-06 0)
(-9.754e-11 -8.92232e-06 0)
(-9.7371e-11 -8.92233e-06 0)
(-9.71001e-11 -8.92233e-06 0)
(-9.67255e-11 -8.92234e-06 0)
(-9.62457e-11 -8.92234e-06 0)
(-9.56604e-11 -8.92235e-06 0)
(-9.49697e-11 -8.92236e-06 0)
(-9.41735e-11 -8.92236e-06 0)
(-9.32707e-11 -8.92237e-06 0)
(-9.22604e-11 -8.92238e-06 0)
(-9.11421e-11 -8.92238e-06 0)
(-8.9916e-11 -8.92239e-06 0)
(-8.85829e-11 -8.9224e-06 0)
(-8.71433e-11 -8.9224e-06 0)
(-8.55975e-11 -8.92241e-06 0)
(-8.39454e-11 -8.92242e-06 0)
(-8.21872e-11 -8.92242e-06 0)
(-8.03238e-11 -8.92243e-06 0)
(-7.83565e-11 -8.92244e-06 0)
(-7.62872e-11 -8.92244e-06 0)
(-7.41174e-11 -8.92245e-06 0)
(-7.18485e-11 -8.92246e-06 0)
(-6.94818e-11 -8.92246e-06 0)
(-6.70186e-11 -8.92247e-06 0)
(-6.44611e-11 -8.92247e-06 0)
(-6.18114e-11 -8.92248e-06 0)
(-5.90725e-11 -8.92249e-06 0)
(-5.6247e-11 -8.92249e-06 0)
(-5.33381e-11 -8.9225e-06 0)
(-5.03486e-11 -8.9225e-06 0)
(-4.72814e-11 -8.92251e-06 0)
(-4.41396e-11 -8.92251e-06 0)
(-4.09266e-11 -8.92251e-06 0)
(-3.76474e-11 -8.92252e-06 0)
(-3.43097e-11 -8.92252e-06 0)
(-3.09212e-11 -8.92253e-06 0)
(-2.74826e-11 -8.92253e-06 0)
(-2.39813e-11 -8.92253e-06 0)
(-2.04069e-11 -8.92253e-06 0)
(-1.67984e-11 -8.92253e-06 0)
(-1.32573e-11 -8.92254e-06 0)
(-9.78613e-12 -8.92256e-06 0)
(-6.12546e-12 -8.92257e-06 0)
(-2.0998e-12 -8.92257e-06 0)
(-1.1379e-12 -8.96156e-06 0)
(-3.53142e-12 -8.96152e-06 0)
(-6.10541e-12 -8.96152e-06 0)
(-8.79925e-12 -8.96152e-06 0)
(-1.1497e-11 -8.96152e-06 0)
(-1.40759e-11 -8.96152e-06 0)
(-1.65572e-11 -8.96152e-06 0)
(-1.90055e-11 -8.96152e-06 0)
(-2.14573e-11 -8.96152e-06 0)
(-2.39172e-11 -8.96152e-06 0)
(-2.63774e-11 -8.96152e-06 0)
(-2.88309e-11 -8.96152e-06 0)
(-3.12755e-11 -8.96153e-06 0)
(-3.37097e-11 -8.96153e-06 0)
(-3.61325e-11 -8.96153e-06 0)
(-3.85421e-11 -8.96153e-06 0)
(-4.0935e-11 -8.96153e-06 0)
(-4.33109e-11 -8.96153e-06 0)
(-4.56667e-11 -8.96153e-06 0)
(-4.79991e-11 -8.96154e-06 0)
(-5.03078e-11 -8.96154e-06 0)
(-5.25892e-11 -8.96154e-06 0)
(-5.4842e-11 -8.96154e-06 0)
(-5.70638e-11 -8.96155e-06 0)
(-5.92516e-11 -8.96155e-06 0)
(-6.14048e-11 -8.96155e-06 0)
(-6.35203e-11 -8.96155e-06 0)
(-6.55952e-11 -8.96156e-06 0)
(-6.76292e-11 -8.96156e-06 0)
(-6.9619e-11 -8.96156e-06 0)
(-7.15612e-11 -8.96157e-06 0)
(-7.34558e-11 -8.96157e-06 0)
(-7.52999e-11 -8.96158e-06 0)
(-7.70892e-11 -8.96158e-06 0)
(-7.88224e-11 -8.96158e-06 0)
(-8.04987e-11 -8.96159e-06 0)
(-8.2114e-11 -8.96159e-06 0)
(-8.36644e-11 -8.9616e-06 0)
(-8.51493e-11 -8.9616e-06 0)
(-8.65673e-11 -8.96161e-06 0)
(-8.79143e-11 -8.96161e-06 0)
(-8.91872e-11 -8.96162e-06 0)
(-9.03852e-11 -8.96162e-06 0)
(-9.15065e-11 -8.96163e-06 0)
(-9.25478e-11 -8.96164e-06 0)
(-9.35061e-11 -8.96164e-06 0)
(-9.43802e-11 -8.96165e-06 0)
(-9.51688e-11 -8.96165e-06 0)
(-9.58695e-11 -8.96166e-06 0)
(-9.64794e-11 -8.96167e-06 0)
(-9.69968e-11 -8.96167e-06 0)
(-9.74214e-11 -8.96168e-06 0)
(-9.77518e-11 -8.96168e-06 0)
(-9.79857e-11 -8.96169e-06 0)
(-9.81207e-11 -8.9617e-06 0)
(-9.81554e-11 -8.9617e-06 0)
(-9.80897e-11 -8.96171e-06 0)
(-9.7923e-11 -8.96172e-06 0)
(-9.76538e-11 -8.96172e-06 0)
(-9.72801e-11 -8.96173e-06 0)
(-9.68006e-11 -8.96174e-06 0)
(-9.62152e-11 -8.96174e-06 0)
(-9.55241e-11 -8.96175e-06 0)
(-9.47267e-11 -8.96176e-06 0)
(-9.3822e-11 -8.96176e-06 0)
(-9.28089e-11 -8.96177e-06 0)
(-9.1687e-11 -8.96178e-06 0)
(-9.04569e-11 -8.96178e-06 0)
(-8.91192e-11 -8.96179e-06 0)
(-8.76746e-11 -8.9618e-06 0)
(-8.61229e-11 -8.9618e-06 0)
(-8.4464e-11 -8.96181e-06 0)
(-8.26981e-11 -8.96182e-06 0)
(-8.08261e-11 -8.96182e-06 0)
(-7.88498e-11 -8.96183e-06 0)
(-7.67708e-11 -8.96183e-06 0)
(-7.45907e-11 -8.96184e-06 0)
(-7.23108e-11 -8.96185e-06 0)
(-6.99322e-11 -8.96185e-06 0)
(-6.74564e-11 -8.96186e-06 0)
(-6.48852e-11 -8.96187e-06 0)
(-6.22212e-11 -8.96187e-06 0)
(-5.94671e-11 -8.96188e-06 0)
(-5.66258e-11 -8.96188e-06 0)
(-5.37001e-11 -8.96189e-06 0)
(-5.06928e-11 -8.96189e-06 0)
(-4.76073e-11 -8.9619e-06 0)
(-4.44466e-11 -8.9619e-06 0)
(-4.12136e-11 -8.96191e-06 0)
(-3.79106e-11 -8.96191e-06 0)
(-3.45424e-11 -8.96191e-06 0)
(-3.11204e-11 -8.96192e-06 0)
(-2.76603e-11 -8.96192e-06 0)
(-2.41634e-11 -8.96193e-06 0)
(-2.05968e-11 -8.96193e-06 0)
(-1.69231e-11 -8.96193e-06 0)
(-1.32016e-11 -8.96192e-06 0)
(-9.56606e-12 -8.96193e-06 0)
(-5.92406e-12 -8.96194e-06 0)
(-2.03181e-12 -8.96196e-06 0)
(-1.29599e-12 -9.01415e-06 0)
(-3.82289e-12 -9.01413e-06 0)
(-6.29809e-12 -9.01412e-06 0)
(-8.83884e-12 -9.01412e-06 0)
(-1.14404e-11 -9.01412e-06 0)
(-1.40232e-11 -9.01412e-06 0)
(-1.65555e-11 -9.01412e-06 0)
(-1.90522e-11 -9.01412e-06 0)
(-2.15357e-11 -9.01412e-06 0)
(-2.40161e-11 -9.01412e-06 0)
(-2.64942e-11 -9.01412e-06 0)
(-2.89659e-11 -9.01412e-06 0)
(-3.14291e-11 -9.01412e-06 0)
(-3.38817e-11 -9.01412e-06 0)
(-3.63214e-11 -9.01413e-06 0)
(-3.87481e-11 -9.01413e-06 0)
(-4.11585e-11 -9.01413e-06 0)
(-4.35506e-11 -9.01413e-06 0)
(-4.59226e-11 -9.01413e-06 0)
(-4.82722e-11 -9.01413e-06 0)
(-5.05972e-11 -9.01414e-06 0)
(-5.28945e-11 -9.01414e-06 0)
(-5.51636e-11 -9.01414e-06 0)
(-5.74015e-11 -9.01414e-06 0)
(-5.96051e-11 -9.01415e-06 0)
(-6.17743e-11 -9.01415e-06 0)
(-6.39054e-11 -9.01415e-06 0)
(-6.59957e-11 -9.01416e-06 0)
(-6.80453e-11 -9.01416e-06 0)
(-7.00507e-11 -9.01416e-06 0)
(-7.20082e-11 -9.01417e-06 0)
(-7.39177e-11 -9.01417e-06 0)
(-7.57769e-11 -9.01417e-06 0)
(-7.75813e-11 -9.01418e-06 0)
(-7.93294e-11 -9.01418e-06 0)
(-8.10203e-11 -9.01419e-06 0)
(-8.26496e-11 -9.01419e-06 0)
(-8.42139e-11 -9.0142e-06 0)
(-8.57126e-11 -9.0142e-06 0)
(-8.71441e-11 -9.01421e-06 0)
(-8.8504e-11 -9.01421e-06 0)
(-8.97893e-11 -9.01422e-06 0)
(-9.09992e-11 -9.01422e-06 0)
(-9.21323e-11 -9.01423e-06 0)
(-9.3185e-11 -9.01423e-06 0)
(-9.41539e-11 -9.01424e-06 0)
(-9.50378e-11 -9.01425e-06 0)
(-9.58356e-11 -9.01425e-06 0)
(-9.65452e-11 -9.01426e-06 0)
(-9.71634e-11 -9.01426e-06 0)
(-9.76886e-11 -9.01427e-06 0)
(-9.81201e-11 -9.01428e-06 0)
(-9.84567e-11 -9.01428e-06 0)
(-9.86961e-11 -9.01429e-06 0)
(-9.8836e-11 -9.0143e-06 0)
(-9.88751e-11 -9.0143e-06 0)
(-9.88131e-11 -9.01431e-06 0)
(-9.86492e-11 -9.01432e-06 0)
(-9.83819e-11 -9.01432e-06 0)
(-9.80094e-11 -9.01433e-06 0)
(-9.75305e-11 -9.01434e-06 0)
(-9.69451e-11 -9.01434e-06 0)
(-9.6253e-11 -9.01435e-06 0)
(-9.54539e-11 -9.01435e-06 0)
(-9.45464e-11 -9.01436e-06 0)
(-9.35296e-11 -9.01437e-06 0)
(-9.24032e-11 -9.01437e-06 0)
(-9.11677e-11 -9.01438e-06 0)
(-8.9824e-11 -9.01439e-06 0)
(-8.83724e-11 -9.01439e-06 0)
(-8.68127e-11 -9.0144e-06 0)
(-8.51447e-11 -9.01441e-06 0)
(-8.33686e-11 -9.01441e-06 0)
(-8.14856e-11 -9.01442e-06 0)
(-7.94973e-11 -9.01443e-06 0)
(-7.74055e-11 -9.01443e-06 0)
(-7.52117e-11 -9.01444e-06 0)
(-7.29172e-11 -9.01445e-06 0)
(-7.05228e-11 -9.01445e-06 0)
(-6.80301e-11 -9.01446e-06 0)
(-6.54411e-11 -9.01446e-06 0)
(-6.27581e-11 -9.01447e-06 0)
(-5.99842e-11 -9.01448e-06 0)
(-5.7122e-11 -9.01448e-06 0)
(-5.41743e-11 -9.01449e-06 0)
(-5.11436e-11 -9.01449e-06 0)
(-4.80329e-11 -9.0145e-06 0)
(-4.48462e-11 -9.0145e-06 0)
(-4.15879e-11 -9.01451e-06 0)
(-3.82603e-11 -9.01451e-06 0)
(-3.48626e-11 -9.01451e-06 0)
(-3.13966e-11 -9.01452e-06 0)
(-2.78777e-11 -9.01452e-06 0)
(-2.4334e-11 -9.01452e-06 0)
(-2.07688e-11 -9.01453e-06 0)
(-1.71231e-11 -9.01454e-06 0)
(-1.33505e-11 -9.01453e-06 0)
(-9.55007e-12 -9.01453e-06 0)
(-5.79401e-12 -9.01454e-06 0)
(-1.96048e-12 -9.01456e-06 0)
(-1.32688e-12 -9.08001e-06 0)
(-3.9097e-12 -9.07999e-06 0)
(-6.41509e-12 -9.07999e-06 0)
(-8.93053e-12 -9.07999e-06 0)
(-1.14793e-11 -9.07999e-06 0)
(-1.40424e-11 -9.07999e-06 0)
(-1.6593e-11 -9.07999e-06 0)
(-1.91231e-11 -9.07999e-06 0)
(-2.16381e-11 -9.07999e-06 0)
(-2.41442e-11 -9.07999e-06 0)
(-2.66447e-11 -9.07999e-06 0)
(-2.91381e-11 -9.07999e-06 0)
(-3.16223e-11 -9.08e-06 0)
(-3.40966e-11 -9.08e-06 0)
(-3.65581e-11 -9.08e-06 0)
(-3.90051e-11 -9.08e-06 0)
(-4.1436e-11 -9.08e-06 0)
(-4.38491e-11 -9.08e-06 0)
(-4.62414e-11 -9.08e-06 0)
(-4.86111e-11 -9.08001e-06 0)
(-5.09565e-11 -9.08001e-06 0)
(-5.32737e-11 -9.08001e-06 0)
(-5.55627e-11 -9.08001e-06 0)
(-5.78206e-11 -9.08002e-06 0)
(-6.00438e-11 -9.08002e-06 0)
(-6.22322e-11 -9.08002e-06 0)
(-6.43828e-11 -9.08002e-06 0)
(-6.64925e-11 -9.08003e-06 0)
(-6.85613e-11 -9.08003e-06 0)
(-7.05856e-11 -9.08003e-06 0)
(-7.25617e-11 -9.08004e-06 0)
(-7.449e-11 -9.08004e-06 0)
(-7.6368e-11 -9.08005e-06 0)
(-7.81908e-11 -9.08005e-06 0)
(-7.99569e-11 -9.08005e-06 0)
(-8.16655e-11 -9.08006e-06 0)
(-8.33124e-11 -9.08006e-06 0)
(-8.4894e-11 -9.08007e-06 0)
(-8.64096e-11 -9.08007e-06 0)
(-8.78574e-11 -9.08008e-06 0)
(-8.9233e-11 -9.08008e-06 0)
(-9.05335e-11 -9.08009e-06 0)
(-9.17585e-11 -9.0801e-06 0)
(-9.2906e-11 -9.0801e-06 0)
(-9.39724e-11 -9.08011e-06 0)
(-9.49541e-11 -9.08011e-06 0)
(-9.585e-11 -9.08012e-06 0)
(-9.66595e-11 -9.08012e-06 0)
(-9.738e-11 -9.08013e-06 0)
(-9.80084e-11 -9.08014e-06 0)
(-9.85428e-11 -9.08014e-06 0)
(-9.89827e-11 -9.08015e-06 0)
(-9.93268e-11 -9.08016e-06 0)
(-9.95732e-11 -9.08016e-06 0)
(-9.97192e-11 -9.08017e-06 0)
(-9.97635e-11 -9.08017e-06 0)
(-9.97057e-11 -9.08018e-06 0)
(-9.95451e-11 -9.08019e-06 0)
(-9.92802e-11 -9.08019e-06 0)
(-9.89092e-11 -9.0802e-06 0)
(-9.8431e-11 -9.08021e-06 0)
(-9.78453e-11 -9.08021e-06 0)
(-9.7152e-11 -9.08022e-06 0)
(-9.63503e-11 -9.08023e-06 0)
(-9.54393e-11 -9.08023e-06 0)
(-9.44179e-11 -9.08024e-06 0)
(-9.32859e-11 -9.08025e-06 0)
(-9.20438e-11 -9.08025e-06 0)
(-9.06925e-11 -9.08026e-06 0)
(-8.92321e-11 -9.08027e-06 0)
(-8.76623e-11 -9.08027e-06 0)
(-8.59829e-11 -9.08028e-06 0)
(-8.41943e-11 -9.08029e-06 0)
(-8.22975e-11 -9.08029e-06 0)
(-8.02944e-11 -9.0803e-06 0)
(-7.81867e-11 -9.08031e-06 0)
(-7.5976e-11 -9.08031e-06 0)
(-7.36631e-11 -9.08032e-06 0)
(-7.12492e-11 -9.08033e-06 0)
(-6.87357e-11 -9.08033e-06 0)
(-6.61244e-11 -9.08034e-06 0)
(-6.34181e-11 -9.08034e-06 0)
(-6.06195e-11 -9.08035e-06 0)
(-5.77316e-11 -9.08035e-06 0)
(-5.4757e-11 -9.08036e-06 0)
(-5.16979e-11 -9.08036e-06 0)
(-4.85564e-11 -9.08037e-06 0)
(-4.5336e-11 -9.08037e-06 0)
(-4.20422e-11 -9.08038e-06 0)
(-3.86817e-11 -9.08038e-06 0)
(-3.5257e-11 -9.08039e-06 0)
(-3.17622e-11 -9.08039e-06 0)
(-2.81928e-11 -9.08039e-06 0)
(-2.45684e-11 -9.08039e-06 0)
(-2.09294e-11 -9.0804e-06 0)
(-1.72709e-11 -9.08041e-06 0)
(-1.3518e-11 -9.08041e-06 0)
(-9.66733e-12 -9.08041e-06 0)
(-5.81037e-12 -9.08041e-06 0)
(-1.94582e-12 -9.08043e-06 0)
(-1.29651e-12 -9.15924e-06 0)
(-3.87773e-12 -9.15922e-06 0)
(-6.44099e-12 -9.15922e-06 0)
(-8.99415e-12 -9.15922e-06 0)
(-1.1548e-11 -9.15922e-06 0)
(-1.41094e-11 -9.15922e-06 0)
(-1.66711e-11 -9.15922e-06 0)
(-1.92248e-11 -9.15922e-06 0)
(-2.17687e-11 -9.15922e-06 0)
(-2.43028e-11 -9.15922e-06 0)
(-2.68288e-11 -9.15922e-06 0)
(-2.93475e-11 -9.15922e-06 0)
(-3.18567e-11 -9.15922e-06 0)
(-3.43552e-11 -9.15922e-06 0)
(-3.68414e-11 -9.15922e-06 0)
(-3.93131e-11 -9.15923e-06 0)
(-4.17682e-11 -9.15923e-06 0)
(-4.42056e-11 -9.15923e-06 0)
(-4.66221e-11 -9.15923e-06 0)
(-4.90156e-11 -9.15923e-06 0)
(-5.13848e-11 -9.15923e-06 0)
(-5.3726e-11 -9.15924e-06 0)
(-5.60386e-11 -9.15924e-06 0)
(-5.83198e-11 -9.15924e-06 0)
(-6.05662e-11 -9.15924e-06 0)
(-6.27778e-11 -9.15925e-06 0)
(-6.49514e-11 -9.15925e-06 0)
(-6.70839e-11 -9.15925e-06 0)
(-6.91752e-11 -9.15926e-06 0)
(-7.12219e-11 -9.15926e-06 0)
(-7.32205e-11 -9.15926e-06 0)
(-7.51711e-11 -9.15927e-06 0)
(-7.70711e-11 -9.15927e-06 0)
(-7.89154e-11 -9.15928e-06 0)
(-8.07028e-11 -9.15928e-06 0)
(-8.24325e-11 -9.15929e-06 0)
(-8.41003e-11 -9.15929e-06 0)
(-8.57022e-11 -9.1593e-06 0)
(-8.72374e-11 -9.1593e-06 0)
(-8.87043e-11 -9.15931e-06 0)
(-9.00987e-11 -9.15931e-06 0)
(-9.14175e-11 -9.15932e-06 0)
(-9.266e-11 -9.15932e-06 0)
(-9.38244e-11 -9.15933e-06 0)
(-9.49067e-11 -9.15933e-06 0)
(-9.59035e-11 -9.15934e-06 0)
(-9.68138e-11 -9.15935e-06 0)
(-9.76369e-11 -9.15935e-06 0)
(-9.83703e-11 -9.15936e-06 0)
(-9.90105e-11 -9.15936e-06 0)
(-9.95557e-11 -9.15937e-06 0)
(-1.00005e-10 -9.15938e-06 0)
(-1.00359e-10 -9.15938e-06 0)
(-1.00613e-10 -9.15939e-06 0)
(-1.00766e-10 -9.1594e-06 0)
(-1.00817e-10 -9.1594e-06 0)
(-1.00764e-10 -9.15941e-06 0)
(-1.00607e-10 -9.15942e-06 0)
(-1.00345e-10 -9.15942e-06 0)
(-9.99754e-11 -9.15943e-06 0)
(-9.94979e-11 -9.15943e-06 0)
(-9.89116e-11 -9.15944e-06 0)
(-9.82165e-11 -9.15945e-06 0)
(-9.74118e-11 -9.15945e-06 0)
(-9.64964e-11 -9.15946e-06 0)
(-9.54695e-11 -9.15947e-06 0)
(-9.43308e-11 -9.15947e-06 0)
(-9.30809e-11 -9.15948e-06 0)
(-9.17203e-11 -9.15949e-06 0)
(-9.02492e-11 -9.15949e-06 0)
(-8.86673e-11 -9.1595e-06 0)
(-8.69743e-11 -9.15951e-06 0)
(-8.51707e-11 -9.15951e-06 0)
(-8.32576e-11 -9.15952e-06 0)
(-8.12369e-11 -9.15953e-06 0)
(-7.91103e-11 -9.15953e-06 0)
(-7.68792e-11 -9.15954e-06 0)
(-7.45445e-11 -9.15955e-06 0)
(-7.21073e-11 -9.15955e-06 0)
(-6.9569e-11 -9.15956e-06 0)
(-6.69314e-11 -9.15957e-06 0)
(-6.41973e-11 -9.15957e-06 0)
(-6.13695e-11 -9.15958e-06 0)
(-5.84508e-11 -9.15958e-06 0)
(-5.54439e-11 -9.15959e-06 0)
(-5.23516e-11 -9.15959e-06 0)
(-4.91756e-11 -9.1596e-06 0)
(-4.59176e-11 -9.1596e-06 0)
(-4.25809e-11 -9.15961e-06 0)
(-3.91729e-11 -9.15961e-06 0)
(-3.5704e-11 -9.15961e-06 0)
(-3.21776e-11 -9.15962e-06 0)
(-2.85815e-11 -9.15962e-06 0)
(-2.49058e-11 -9.15962e-06 0)
(-2.11778e-11 -9.15963e-06 0)
(-1.74384e-11 -9.15963e-06 0)
(-1.36614e-11 -9.15964e-06 0)
(-9.79929e-12 -9.15964e-06 0)
(-5.88862e-12 -9.15964e-06 0)
(-1.96602e-12 -9.15966e-06 0)
(-1.27628e-12 -9.25192e-06 0)
(-3.85077e-12 -9.2519e-06 0)
(-6.44737e-12 -9.2519e-06 0)
(-9.03901e-12 -9.2519e-06 0)
(-1.16222e-11 -9.2519e-06 0)
(-1.42027e-11 -9.2519e-06 0)
(-1.67828e-11 -9.2519e-06 0)
(-1.93591e-11 -9.2519e-06 0)
(-2.19294e-11 -9.2519e-06 0)
(-2.44927e-11 -9.2519e-06 0)
(-2.70476e-11 -9.2519e-06 0)
(-2.95941e-11 -9.2519e-06 0)
(-3.21317e-11 -9.2519e-06 0)
(-3.4658e-11 -9.2519e-06 0)
(-3.71719e-11 -9.25191e-06 0)
(-3.96718e-11 -9.25191e-06 0)
(-4.21548e-11 -9.25191e-06 0)
(-4.46198e-11 -9.25191e-06 0)
(-4.70639e-11 -9.25191e-06 0)
(-4.94852e-11 -9.25191e-06 0)
(-5.1882e-11 -9.25192e-06 0)
(-5.42503e-11 -9.25192e-06 0)
(-5.65899e-11 -9.25192e-06 0)
(-5.88981e-11 -9.25192e-06 0)
(-6.11714e-11 -9.25193e-06 0)
(-6.34098e-11 -9.25193e-06 0)
(-6.56098e-11 -9.25193e-06 0)
(-6.77683e-11 -9.25193e-06 0)
(-6.98858e-11 -9.25194e-06 0)
(-7.19585e-11 -9.25194e-06 0)
(-7.39828e-11 -9.25195e-06 0)
(-7.59589e-11 -9.25195e-06 0)
(-7.7884e-11 -9.25195e-06 0)
(-7.97532e-11 -9.25196e-06 0)
(-8.15653e-11 -9.25196e-06 0)
(-8.33193e-11 -9.25197e-06 0)
(-8.50109e-11 -9.25197e-06 0)
(-8.66359e-11 -9.25198e-06 0)
(-8.81937e-11 -9.25198e-06 0)
(-8.96827e-11 -9.25199e-06 0)
(-9.10986e-11 -9.25199e-06 0)
(-9.24383e-11 -9.252e-06 0)
(-9.37008e-11 -9.252e-06 0)
(-9.48844e-11 -9.25201e-06 0)
(-9.59849e-11 -9.25202e-06 0)
(-9.69992e-11 -9.25202e-06 0)
(-9.79261e-11 -9.25203e-06 0)
(-9.87649e-11 -9.25203e-06 0)
(-9.95128e-11 -9.25204e-06 0)
(-1.00166e-10 -9.25205e-06 0)
(-1.00724e-10 -9.25205e-06 0)
(-1.01185e-10 -9.25206e-06 0)
(-1.01548e-10 -9.25206e-06 0)
(-1.01812e-10 -9.25207e-06 0)
(-1.01973e-10 -9.25208e-06 0)
(-1.0203e-10 -9.25208e-06 0)
(-1.01983e-10 -9.25209e-06 0)
(-1.0183e-10 -9.2521e-06 0)
(-1.01571e-10 -9.2521e-06 0)
(-1.01204e-10 -9.25211e-06 0)
(-1.00727e-10 -9.25212e-06 0)
(-1.0014e-10 -9.25212e-06 0)
(-9.94426e-11 -9.25213e-06 0)
(-9.86342e-11 -9.25214e-06 0)
(-9.77138e-11 -9.25214e-06 0)
(-9.66805e-11 -9.25215e-06 0)
(-9.55339e-11 -9.25216e-06 0)
(-9.42747e-11 -9.25216e-06 0)
(-9.29031e-11 -9.25217e-06 0)
(-9.14196e-11 -9.25218e-06 0)
(-8.98235e-11 -9.25218e-06 0)
(-8.81148e-11 -9.25219e-06 0)
(-8.62939e-11 -9.2522e-06 0)
(-8.4362e-11 -9.2522e-06 0)
(-8.23208e-11 -9.25221e-06 0)
(-8.01722e-11 -9.25222e-06 0)
(-7.79175e-11 -9.25222e-06 0)
(-7.55575e-11 -9.25223e-06 0)
(-7.30933e-11 -9.25223e-06 0)
(-7.05262e-11 -9.25224e-06 0)
(-6.78584e-11 -9.25225e-06 0)
(-6.50924e-11 -9.25225e-06 0)
(-6.2231e-11 -9.25226e-06 0)
(-5.92767e-11 -9.25226e-06 0)
(-5.62321e-11 -9.25227e-06 0)
(-5.31002e-11 -9.25227e-06 0)
(-4.9884e-11 -9.25228e-06 0)
(-4.65858e-11 -9.25228e-06 0)
(-4.32064e-11 -9.25229e-06 0)
(-3.97478e-11 -9.25229e-06 0)
(-3.62194e-11 -9.2523e-06 0)
(-3.26356e-11 -9.2523e-06 0)
(-2.8999e-11 -9.25231e-06 0)
(-2.5292e-11 -9.25231e-06 0)
(-2.15079e-11 -9.25231e-06 0)
(-1.76813e-11 -9.25231e-06 0)
(-1.38327e-11 -9.25232e-06 0)
(-9.93282e-12 -9.25232e-06 0)
(-5.97924e-12 -9.25232e-06 0)
(-1.9969e-12 -9.25234e-06 0)
(-1.28119e-12 -9.35817e-06 0)
(-3.86604e-12 -9.35815e-06 0)
(-6.47709e-12 -9.35815e-06 0)
(-9.09242e-12 -9.35815e-06 0)
(-1.17056e-11 -9.35815e-06 0)
(-1.43143e-11 -9.35815e-06 0)
(-1.69202e-11 -9.35815e-06 0)
(-1.95234e-11 -9.35815e-06 0)
(-2.21219e-11 -9.35815e-06 0)
(-2.47149e-11 -9.35815e-06 0)
(-2.7301e-11 -9.35815e-06 0)
(-2.98785e-11 -9.35815e-06 0)
(-3.2447e-11 -9.35815e-06 0)
(-3.50048e-11 -9.35815e-06 0)
(-3.755e-11 -9.35816e-06 0)
(-4.00809e-11 -9.35816e-06 0)
(-4.25951e-11 -9.35816e-06 0)
(-4.50914e-11 -9.35816e-06 0)
(-4.75668e-11 -9.35816e-06 0)
(-5.00191e-11 -9.35816e-06 0)
(-5.24468e-11 -9.35817e-06 0)
(-5.48458e-11 -9.35817e-06 0)
(-5.72161e-11 -9.35817e-06 0)
(-5.95549e-11 -9.35817e-06 0)
(-6.18585e-11 -9.35818e-06 0)
(-6.41268e-11 -9.35818e-06 0)
(-6.63566e-11 -9.35818e-06 0)
(-6.85448e-11 -9.35819e-06 0)
(-7.06918e-11 -9.35819e-06 0)
(-7.27938e-11 -9.35819e-06 0)
(-7.4847e-11 -9.3582e-06 0)
(-7.68517e-11 -9.3582e-06 0)
(-7.88053e-11 -9.3582e-06 0)
(-8.07026e-11 -9.35821e-06 0)
(-8.25424e-11 -9.35821e-06 0)
(-8.43238e-11 -9.35822e-06 0)
(-8.60419e-11 -9.35822e-06 0)
(-8.76929e-11 -9.35823e-06 0)
(-8.92763e-11 -9.35823e-06 0)
(-9.07903e-11 -9.35824e-06 0)
(-9.22304e-11 -9.35824e-06 0)
(-9.35934e-11 -9.35825e-06 0)
(-9.48783e-11 -9.35825e-06 0)
(-9.60834e-11 -9.35826e-06 0)
(-9.72046e-11 -9.35827e-06 0)
(-9.82384e-11 -9.35827e-06 0)
(-9.91839e-11 -9.35828e-06 0)
(-1.0004e-10 -9.35828e-06 0)
(-1.00804e-10 -9.35829e-06 0)
(-1.01473e-10 -9.3583e-06 0)
(-1.02044e-10 -9.3583e-06 0)
(-1.02518e-10 -9.35831e-06 0)
(-1.02893e-10 -9.35832e-06 0)
(-1.03167e-10 -9.35832e-06 0)
(-1.03337e-10 -9.35833e-06 0)
(-1.03401e-10 -9.35833e-06 0)
(-1.0336e-10 -9.35834e-06 0)
(-1.03212e-10 -9.35835e-06 0)
(-1.02957e-10 -9.35835e-06 0)
(-1.02591e-10 -9.35836e-06 0)
(-1.02115e-10 -9.35837e-06 0)
(-1.01527e-10 -9.35837e-06 0)
(-1.00826e-10 -9.35838e-06 0)
(-1.00014e-10 -9.35839e-06 0)
(-9.90877e-11 -9.35839e-06 0)
(-9.8047e-11 -9.3584e-06 0)
(-9.68914e-11 -9.35841e-06 0)
(-9.56214e-11 -9.35841e-06 0)
(-9.42373e-11 -9.35842e-06 0)
(-9.27394e-11 -9.35843e-06 0)
(-9.11273e-11 -9.35843e-06 0)
(-8.94007e-11 -9.35844e-06 0)
(-8.75601e-11 -9.35845e-06 0)
(-8.56068e-11 -9.35845e-06 0)
(-8.35424e-11 -9.35846e-06 0)
(-8.13688e-11 -9.35847e-06 0)
(-7.90872e-11 -9.35847e-06 0)
(-7.66985e-11 -9.35848e-06 0)
(-7.42037e-11 -9.35849e-06 0)
(-7.16041e-11 -9.35849e-06 0)
(-6.89019e-11 -9.3585e-06 0)
(-6.60997e-11 -9.3585e-06 0)
(-6.32004e-11 -9.35851e-06 0)
(-6.02065e-11 -9.35852e-06 0)
(-5.71198e-11 -9.35852e-06 0)
(-5.39427e-11 -9.35853e-06 0)
(-5.06787e-11 -9.35853e-06 0)
(-4.73322e-11 -9.35854e-06 0)
(-4.39064e-11 -9.35854e-06 0)
(-4.04007e-11 -9.35855e-06 0)
(-3.68161e-11 -9.35855e-06 0)
(-3.31636e-11 -9.35855e-06 0)
(-2.94594e-11 -9.35856e-06 0)
(-2.57025e-11 -9.35856e-06 0)
(-2.18747e-11 -9.35856e-06 0)
(-1.79821e-11 -9.35856e-06 0)
(-1.40526e-11 -9.35857e-06 0)
(-1.00867e-11 -9.35857e-06 0)
(-6.07649e-12 -9.35857e-06 0)
(-2.03067e-12 -9.3586e-06 0)
(-1.29701e-12 -9.47812e-06 0)
(-3.90563e-12 -9.4781e-06 0)
(-6.53276e-12 -9.4781e-06 0)
(-9.16713e-12 -9.4781e-06 0)
(-1.18058e-11 -9.4781e-06 0)
(-1.44443e-11 -9.4781e-06 0)
(-1.70805e-11 -9.4781e-06 0)
(-1.97146e-11 -9.4781e-06 0)
(-2.23449e-11 -9.4781e-06 0)
(-2.497e-11 -9.4781e-06 0)
(-2.75892e-11 -9.4781e-06 0)
(-3.02007e-11 -9.4781e-06 0)
(-3.28033e-11 -9.47811e-06 0)
(-3.53953e-11 -9.47811e-06 0)
(-3.79749e-11 -9.47811e-06 0)
(-4.05403e-11 -9.47811e-06 0)
(-4.30891e-11 -9.47811e-06 0)
(-4.56201e-11 -9.47811e-06 0)
(-4.813e-11 -9.47811e-06 0)
(-5.06167e-11 -9.47812e-06 0)
(-5.30787e-11 -9.47812e-06 0)
(-5.55121e-11 -9.47812e-06 0)
(-5.79165e-11 -9.47812e-06 0)
(-6.02891e-11 -9.47813e-06 0)
(-6.26262e-11 -9.47813e-06 0)
(-6.49279e-11 -9.47813e-06 0)
(-6.71909e-11 -9.47814e-06 0)
(-6.94121e-11 -9.47814e-06 0)
(-7.15919e-11 -9.47814e-06 0)
(-7.37263e-11 -9.47815e-06 0)
(-7.58116e-11 -9.47815e-06 0)
(-7.78482e-11 -9.47815e-06 0)
(-7.98335e-11 -9.47816e-06 0)
(-8.1762e-11 -9.47816e-06 0)
(-8.36325e-11 -9.47817e-06 0)
(-8.54439e-11 -9.47817e-06 0)
(-8.71916e-11 -9.47818e-06 0)
(-8.88715e-11 -9.47818e-06 0)
(-9.04832e-11 -9.47819e-06 0)
(-9.20248e-11 -9.47819e-06 0)
(-9.34917e-11 -9.4782e-06 0)
(-9.48804e-11 -9.4782e-06 0)
(-9.61901e-11 -9.47821e-06 0)
(-9.7419e-11 -9.47821e-06 0)
(-9.8563e-11 -9.47822e-06 0)
(-9.96186e-11 -9.47823e-06 0)
(-1.00585e-10 -9.47823e-06 0)
(-1.0146e-10 -9.47824e-06 0)
(-1.02242e-10 -9.47824e-06 0)
(-1.02927e-10 -9.47825e-06 0)
(-1.03514e-10 -9.47826e-06 0)
(-1.04002e-10 -9.47826e-06 0)
(-1.0439e-10 -9.47827e-06 0)
(-1.04675e-10 -9.47828e-06 0)
(-1.04854e-10 -9.47828e-06 0)
(-1.04927e-10 -9.47829e-06 0)
(-1.04892e-10 -9.47829e-06 0)
(-1.04749e-10 -9.4783e-06 0)
(-1.04497e-10 -9.47831e-06 0)
(-1.04134e-10 -9.47831e-06 0)
(-1.03658e-10 -9.47832e-06 0)
(-1.03068e-10 -9.47833e-06 0)
(-1.02365e-10 -9.47833e-06 0)
(-1.01547e-10 -9.47834e-06 0)
(-1.00615e-10 -9.47835e-06 0)
(-9.95655e-11 -9.47835e-06 0)
(-9.83997e-11 -9.47836e-06 0)
(-9.71174e-11 -9.47837e-06 0)
(-9.57193e-11 -9.47837e-06 0)
(-9.42053e-11 -9.47838e-06 0)
(-9.25751e-11 -9.47839e-06 0)
(-9.08285e-11 -9.4784e-06 0)
(-8.89659e-11 -9.4784e-06 0)
(-8.69886e-11 -9.47841e-06 0)
(-8.48982e-11 -9.47842e-06 0)
(-8.26966e-11 -9.47842e-06 0)
(-8.0385e-11 -9.47843e-06 0)
(-7.79643e-11 -9.47843e-06 0)
(-7.54353e-11 -9.47844e-06 0)