/*--------------------------------*- C++ -*----------------------------------*\
| =========                 |                                                 |
| \\      /  F ield         | OpenFOAM: The Open Source CFD Toolbox           |
|  \\    /   O peration     | Version:  2.3.x                                 |
|   \\  /    A nd           | Web:      www.OpenFOAM.org                      |
|    \\/     M anipulation  |                                                 |
\*---------------------------------------------------------------------------*/
FoamFile
{
    version     2.0;
    format      ascii;
    class       surfaceScalarField;
    location    "0.08";
    object      phi;
}
// * * * * * * * * * * * * * * * * * * * * * * * * * * * * * * * * * * * * * //

dimensions      [1 0 -1 0 0 0 0];

internalField   nonuniform List<scalar> 
99400
(
-1.83723e-10
-0.0243349
-4.78537e-11
-0.0243349
-1.22291e-11
-0.0243349
3.27937e-11
-0.0243349
6.89201e-11
-0.0243349
1.00147e-10
-0.0243349
1.28746e-10
-0.0243349
1.55922e-10
-0.0243349
1.82153e-10
-0.0243349
2.0745e-10
-0.0243349
2.32111e-10
-0.0243349
2.56469e-10
-0.0243349
2.80592e-10
-0.0243349
3.04643e-10
-0.0243349
3.28559e-10
-0.0243349
3.52157e-10
-0.0243349
3.75468e-10
-0.0243349
3.98445e-10
-0.0243349
4.2088e-10
-0.0243349
4.42815e-10
-0.0243349
4.64096e-10
-0.0243349
4.84655e-10
-0.0243349
5.04532e-10
-0.0243349
5.23572e-10
-0.0243349
5.41861e-10
-0.0243349
5.59494e-10
-0.0243349
5.76291e-10
-0.0243349
5.92288e-10
-0.0243349
6.07687e-10
-0.0243349
6.2239e-10
-0.0243349
6.36213e-10
-0.0243349
6.49273e-10
-0.0243349
6.6168e-10
-0.0243349
6.73198e-10
-0.0243349
6.83609e-10
-0.0243349
6.9301e-10
-0.0243349
7.01445e-10
-0.0243349
7.08675e-10
-0.0243349
7.1457e-10
-0.0243349
7.19322e-10
-0.0243349
7.23096e-10
-0.0243349
7.25824e-10
-0.0243349
7.27471e-10
-0.0243349
7.28228e-10
-0.0243349
7.28308e-10
-0.0243349
7.27742e-10
-0.0243349
7.26475e-10
-0.0243349
7.24552e-10
-0.0243349
7.22106e-10
-0.0243349
7.19213e-10
-0.0243349
7.15819e-10
-0.0243349
7.11826e-10
-0.0243349
7.07211e-10
-0.0243349
7.02032e-10
-0.0243349
6.9635e-10
-0.0243349
6.90162e-10
-0.0243349
6.83429e-10
-0.0243349
6.76151e-10
-0.0243349
6.68402e-10
-0.0243349
6.60289e-10
-0.0243349
6.51878e-10
-0.0243349
6.43162e-10
-0.0243349
6.34085e-10
-0.0243349
6.24599e-10
-0.0243349
6.1469e-10
-0.0243349
6.04369e-10
-0.0243349
5.93625e-10
-0.0243349
5.82405e-10
-0.0243349
5.70626e-10
-0.0243349
5.58214e-10
-0.0243349
5.45141e-10
-0.0243349
5.31427e-10
-0.0243349
5.17111e-10
-0.0243349
5.02224e-10
-0.0243349
4.86779e-10
-0.0243349
4.70795e-10
-0.0243349
4.54314e-10
-0.0243349
4.37407e-10
-0.0243349
4.20166e-10
-0.0243349
4.0268e-10
-0.0243349
3.85012e-10
-0.0243349
3.67192e-10
-0.0243349
3.49228e-10
-0.0243349
3.31135e-10
-0.0243349
3.1295e-10
-0.0243349
2.94734e-10
-0.0243349
2.76565e-10
-0.0243349
2.58517e-10
-0.0243349
2.4066e-10
-0.0243349
2.23096e-10
-0.0243349
2.05991e-10
-0.0243349
1.89566e-10
-0.0243349
1.74117e-10
-0.0243349
1.60146e-10
-0.0243349
1.48558e-10
-0.0243349
1.41306e-10
-0.0243349
1.4231e-10
-0.0243349
1.33834e-10
-0.0243349
2.26399e-10
-0.0243349
-0.0243349
-2.98877e-11
-0.0243409
-2.45598e-11
-0.0243409
7.95447e-12
-0.0243409
4.21208e-11
-0.0243409
7.37121e-11
-0.0243409
1.02866e-10
-0.0243409
1.30416e-10
-0.0243409
1.5707e-10
-0.0243409
1.82979e-10
-0.0243409
2.08101e-10
-0.0243409
2.32634e-10
-0.0243409
2.56883e-10
-0.0243409
2.81019e-10
-0.0243409
3.05023e-10
-0.0243409
3.28949e-10
-0.0243409
3.52633e-10
-0.0243409
3.75951e-10
-0.0243409
3.99038e-10
-0.0243409
4.21528e-10
-0.0243409
4.43527e-10
-0.0243409
4.64938e-10
-0.0243409
4.8545e-10
-0.0243409
5.05367e-10
-0.0243409
5.24551e-10
-0.0243409
5.4278e-10
-0.0243409
5.60361e-10
-0.0243409
5.77268e-10
-0.0243409
5.93307e-10
-0.0243409
6.08655e-10
-0.0243409
6.2337e-10
-0.0243409
6.37289e-10
-0.0243409
6.50434e-10
-0.0243409
6.6286e-10
-0.0243409
6.744e-10
-0.0243409
6.84911e-10
-0.0243409
6.94419e-10
-0.0243409
7.02859e-10
-0.0243409
7.10037e-10
-0.0243409
7.15925e-10
-0.0243409
7.2069e-10
-0.0243409
7.24412e-10
-0.0243409
7.27022e-10
-0.0243409
7.28561e-10
-0.0243409
7.29255e-10
-0.0243409
7.29288e-10
-0.0243409
7.28653e-10
-0.0243409
7.273e-10
-0.0243409
7.25317e-10
-0.0243409
7.2287e-10
-0.0243409
7.20012e-10
-0.0243409
7.16639e-10
-0.0243409
7.12627e-10
-0.0243409
7.07974e-10
-0.0243409
7.02777e-10
-0.0243409
6.97102e-10
-0.0243409
6.90914e-10
-0.0243409
6.84146e-10
-0.0243409
6.768e-10
-0.0243409
6.68982e-10
-0.0243409
6.60831e-10
-0.0243409
6.5242e-10
-0.0243409
6.43718e-10
-0.0243409
6.34644e-10
-0.0243409
6.25147e-10
-0.0243409
6.15232e-10
-0.0243409
6.0493e-10
-0.0243409
5.94237e-10
-0.0243409
5.83083e-10
-0.0243409
5.71355e-10
-0.0243409
5.58966e-10
-0.0243409
5.45889e-10
-0.0243409
5.3216e-10
-0.0243409
5.17829e-10
-0.0243409
5.02924e-10
-0.0243409
4.8745e-10
-0.0243409
4.71418e-10
-0.0243409
4.54872e-10
-0.0243409
4.37892e-10
-0.0243409
4.2058e-10
-0.0243409
4.03033e-10
-0.0243409
3.85314e-10
-0.0243409
3.6745e-10
-0.0243409
3.49445e-10
-0.0243409
3.31304e-10
-0.0243409
3.13057e-10
-0.0243409
2.94772e-10
-0.0243409
2.76527e-10
-0.0243409
2.58386e-10
-0.0243409
2.40402e-10
-0.0243409
2.22675e-10
-0.0243409
2.05348e-10
-0.0243409
1.88588e-10
-0.0243409
1.7261e-10
-0.0243409
1.57707e-10
-0.0243409
1.4422e-10
-0.0243409
1.32496e-10
-0.0243409
1.22439e-10
-0.0243409
1.10644e-10
-0.0243409
7.25118e-11
-0.0243409
-0.0243409
-4.60789e-12
-0.0243497
4.3607e-12
-0.0243497
2.62346e-11
-0.0243497
5.30322e-11
-0.0243497
8.05119e-11
-0.0243497
1.07349e-10
-0.0243497
1.33452e-10
-0.0243497
1.59113e-10
-0.0243497
1.84404e-10
-0.0243497
2.09213e-10
-0.0243497
2.33671e-10
-0.0243497
2.5776e-10
-0.0243497
2.81888e-10
-0.0243497
3.05858e-10
-0.0243497
3.29734e-10
-0.0243497
3.53551e-10
-0.0243497
3.76909e-10
-0.0243497
4.00162e-10
-0.0243497
4.22829e-10
-0.0243497
4.44826e-10
-0.0243497
4.66422e-10
-0.0243497
4.87083e-10
-0.0243497
5.06976e-10
-0.0243497
5.26233e-10
-0.0243497
5.44556e-10
-0.0243497
5.6216e-10
-0.0243497
5.79086e-10
-0.0243497
5.9515e-10
-0.0243497
6.10557e-10
-0.0243497
6.25365e-10
-0.0243497
6.39357e-10
-0.0243497
6.52573e-10
-0.0243497
6.65118e-10
-0.0243497
6.76798e-10
-0.0243497
6.87426e-10
-0.0243497
6.97003e-10
-0.0243497
7.05466e-10
-0.0243497
7.12656e-10
-0.0243497
7.18551e-10
-0.0243497
7.23266e-10
-0.0243497
7.2685e-10
-0.0243497
7.29294e-10
-0.0243497
7.30702e-10
-0.0243497
7.31284e-10
-0.0243497
7.31174e-10
-0.0243497
7.3037e-10
-0.0243497
7.28885e-10
-0.0243497
7.26854e-10
-0.0243497
7.24419e-10
-0.0243497
7.21572e-10
-0.0243497
7.18169e-10
-0.0243497
7.14106e-10
-0.0243497
7.09421e-10
-0.0243497
7.04225e-10
-0.0243497
6.98554e-10
-0.0243497
6.9233e-10
-0.0243497
6.85474e-10
-0.0243497
6.78019e-10
-0.0243497
6.70119e-10
-0.0243497
6.6193e-10
-0.0243497
6.53507e-10
-0.0243497
6.44792e-10
-0.0243497
6.35693e-10
-0.0243497
6.26175e-10
-0.0243497
6.16275e-10
-0.0243497
6.06037e-10
-0.0243497
5.95443e-10
-0.0243497
5.84387e-10
-0.0243497
5.72729e-10
-0.0243497
5.60372e-10
-0.0243497
5.47301e-10
-0.0243497
5.33563e-10
-0.0243497
5.19209e-10
-0.0243497
5.0426e-10
-0.0243497
4.88714e-10
-0.0243497
4.72584e-10
-0.0243497
4.55923e-10
-0.0243497
4.38821e-10
-0.0243497
4.21389e-10
-0.0243497
4.03725e-10
-0.0243497
3.85894e-10
-0.0243497
3.67925e-10
-0.0243497
3.49827e-10
-0.0243497
3.31605e-10
-0.0243497
3.13272e-10
-0.0243497
2.94871e-10
-0.0243497
2.76479e-10
-0.0243497
2.58156e-10
-0.0243497
2.39947e-10
-0.0243497
2.21936e-10
-0.0243497
2.04231e-10
-0.0243497
1.8692e-10
-0.0243497
1.70087e-10
-0.0243497
1.53799e-10
-0.0243497
1.37994e-10
-0.0243497
1.22182e-10
-0.0243497
1.04825e-10
-0.0243497
8.23624e-11
-0.0243497
4.7549e-11
-0.0243497
-0.0243497
7.43033e-12
-0.0243613
2.0316e-11
-0.0243613
3.94552e-11
-0.0243613
6.25034e-11
-0.0243613
8.73508e-11
-0.0243613
1.12439e-10
-0.0243613
1.37256e-10
-0.0243613
1.61845e-10
-0.0243613
1.86424e-10
-0.0243613
2.10767e-10
-0.0243613
2.35083e-10
-0.0243613
2.59083e-10
-0.0243613
2.831e-10
-0.0243613
3.07092e-10
-0.0243613
3.30935e-10
-0.0243613
3.54918e-10
-0.0243613
3.78419e-10
-0.0243613
4.01733e-10
-0.0243613
4.24672e-10
-0.0243613
4.46857e-10
-0.0243613
4.68522e-10
-0.0243613
4.89348e-10
-0.0243613
5.09379e-10
-0.0243613
5.28715e-10
-0.0243613
5.47109e-10
-0.0243613
5.64748e-10
-0.0243613
5.81728e-10
-0.0243613
5.97889e-10
-0.0243613
6.1337e-10
-0.0243613
6.28246e-10
-0.0243613
6.42349e-10
-0.0243613
6.55723e-10
-0.0243613
6.68441e-10
-0.0243613
6.80275e-10
-0.0243613
6.91013e-10
-0.0243613
7.00679e-10
-0.0243613
7.09234e-10
-0.0243613
7.16471e-10
-0.0243613
7.22315e-10
-0.0243613
7.26901e-10
-0.0243613
7.30339e-10
-0.0243613
7.32634e-10
-0.0243613
7.33863e-10
-0.0243613
7.34224e-10
-0.0243613
7.3388e-10
-0.0243613
7.32886e-10
-0.0243613
7.31287e-10
-0.0243613
7.29204e-10
-0.0243613
7.26735e-10
-0.0243613
7.23837e-10
-0.0243613
7.20372e-10
-0.0243613
7.16267e-10
-0.0243613
7.11574e-10
-0.0243613
7.06378e-10
-0.0243613
7.00674e-10
-0.0243613
6.94364e-10
-0.0243613
6.87388e-10
-0.0243613
6.79822e-10
-0.0243613
6.71843e-10
-0.0243613
6.63604e-10
-0.0243613
6.55137e-10
-0.0243613
6.46372e-10
-0.0243613
6.37231e-10
-0.0243613
6.27709e-10
-0.0243613
6.17861e-10
-0.0243613
6.07723e-10
-0.0243613
5.97247e-10
-0.0243613
5.86295e-10
-0.0243613
5.7471e-10
-0.0243613
5.62395e-10
-0.0243613
5.49343e-10
-0.0243613
5.35596e-10
-0.0243613
5.212e-10
-0.0243613
5.06171e-10
-0.0243613
4.90513e-10
-0.0243613
4.74249e-10
-0.0243613
4.57437e-10
-0.0243613
4.40172e-10
-0.0243613
4.22572e-10
-0.0243613
4.04742e-10
-0.0243613
3.8675e-10
-0.0243613
3.68625e-10
-0.0243613
3.50387e-10
-0.0243613
3.3205e-10
-0.0243613
3.13609e-10
-0.0243613
2.9507e-10
-0.0243613
2.76478e-10
-0.0243613
2.57908e-10
-0.0243613
2.39413e-10
-0.0243613
2.21042e-10
-0.0243613
2.02875e-10
-0.0243613
1.84943e-10
-0.0243613
1.67185e-10
-0.0243613
1.49487e-10
-0.0243613
1.31619e-10
-0.0243613
1.13047e-10
-0.0243613
9.24517e-11
-0.0243613
6.75451e-11
-0.0243613
3.6391e-11
-0.0243613
-0.0243613
1.39501e-11
-0.0243758
2.97796e-11
-0.0243757
4.88502e-11
-0.0243757
7.02559e-11
-0.0243757
9.3373e-11
-0.0243757
1.17269e-10
-0.0243757
1.41261e-10
-0.0243757
1.65082e-10
-0.0243757
1.88982e-10
-0.0243757
2.12816e-10
-0.0243757
2.36787e-10
-0.0243757
2.60694e-10
-0.0243757
2.84617e-10
-0.0243757
3.08723e-10
-0.0243757
3.32606e-10
-0.0243757
3.56633e-10
-0.0243757
3.80411e-10
-0.0243757
4.03918e-10
-0.0243757
4.27009e-10
-0.0243757
4.49435e-10
-0.0243757
4.71296e-10
-0.0243757
4.92296e-10
-0.0243757
5.12489e-10
-0.0243757
5.31909e-10
-0.0243757
5.50383e-10
-0.0243757
5.68139e-10
-0.0243757
5.85209e-10
-0.0243757
6.01435e-10
-0.0243757
6.17006e-10
-0.0243757
6.32008e-10
-0.0243757
6.46283e-10
-0.0243757
6.5985e-10
-0.0243757
6.72737e-10
-0.0243757
6.84722e-10
-0.0243757
6.95629e-10
-0.0243757
7.05457e-10
-0.0243757
7.14099e-10
-0.0243757
7.21325e-10
-0.0243757
7.27097e-10
-0.0243757
7.31581e-10
-0.0243757
7.34876e-10
-0.0243757
7.36969e-10
-0.0243757
7.37935e-10
-0.0243757
7.38009e-10
-0.0243757
7.37413e-10
-0.0243757
7.36236e-10
-0.0243757
7.34516e-10
-0.0243757
7.32337e-10
-0.0243757
7.2977e-10
-0.0243757
7.26782e-10
-0.0243757
7.23261e-10
-0.0243757
7.19136e-10
-0.0243757
7.14435e-10
-0.0243757
7.09204e-10
-0.0243757
7.03418e-10
-0.0243757
6.96993e-10
-0.0243757
6.89898e-10
-0.0243757
6.82229e-10
-0.0243757
6.74163e-10
-0.0243757
6.6584e-10
-0.0243757
6.57289e-10
-0.0243757
6.48453e-10
-0.0243757
6.39281e-10
-0.0243757
6.29781e-10
-0.0243757
6.20009e-10
-0.0243757
6.09981e-10
-0.0243757
5.99622e-10
-0.0243757
5.88775e-10
-0.0243757
5.77273e-10
-0.0243757
5.65014e-10
-0.0243757
5.51983e-10
-0.0243757
5.38215e-10
-0.0243757
5.23751e-10
-0.0243757
5.08614e-10
-0.0243757
4.92818e-10
-0.0243757
4.76391e-10
-0.0243757
4.59393e-10
-0.0243757
4.41924e-10
-0.0243757
4.24109e-10
-0.0243757
4.06068e-10
-0.0243757
3.87881e-10
-0.0243757
3.69581e-10
-0.0243757
3.51178e-10
-0.0243757
3.32678e-10
-0.0243757
3.14081e-10
-0.0243757
2.9537e-10
-0.0243757
2.76553e-10
-0.0243757
2.57697e-10
-0.0243757
2.38871e-10
-0.0243757
2.20112e-10
-0.0243757
2.01464e-10
-0.0243757
1.82928e-10
-0.0243757
1.64381e-10
-0.0243757
1.45589e-10
-0.0243757
1.26211e-10
-0.0243757
1.05863e-10
-0.0243757
8.3878e-11
-0.0243757
5.90382e-11
-0.0243757
3.07069e-11
-0.0243757
-0.0243757
1.73646e-11
-0.024393
3.55403e-11
-0.024393
5.54608e-11
-0.024393
7.65827e-11
-0.024393
9.86931e-11
-0.024393
1.21639e-10
-0.024393
1.45011e-10
-0.024393
1.68354e-10
-0.024393
1.91822e-10
-0.024393
2.15234e-10
-0.024393
2.38861e-10
-0.024393
2.62668e-10
-0.024393
2.86492e-10
-0.024393
3.10594e-10
-0.024393
3.3468e-10
-0.024393
3.58839e-10
-0.024393
3.82806e-10
-0.024393
4.06578e-10
-0.024393
4.2989e-10
-0.024393
4.52581e-10
-0.024393
4.74703e-10
-0.024393
4.95869e-10
-0.024393
5.16219e-10
-0.024393
5.35806e-10
-0.024393
5.54408e-10
-0.024393
5.72272e-10
-0.024393
5.89437e-10
-0.024393
6.05754e-10
-0.024393
6.21465e-10
-0.024393
6.36657e-10
-0.024393
6.51112e-10
-0.024393
6.64849e-10
-0.024393
6.77942e-10
-0.024393
6.90158e-10
-0.024393
7.01266e-10
-0.024393
7.11228e-10
-0.024393
7.19933e-10
-0.024393
7.27162e-10
-0.024393
7.32888e-10
-0.024393
7.37267e-10
-0.024393
7.40381e-10
-0.024393
7.42206e-10
-0.024393
7.42857e-10
-0.024393
7.4263e-10
-0.024393
7.41792e-10
-0.024393
7.40425e-10
-0.024393
7.38538e-10
-0.024393
7.36201e-10
-0.024393
7.33499e-10
-0.024393
7.30422e-10
-0.024393
7.26859e-10
-0.024393
7.22711e-10
-0.024393
7.17968e-10
-0.024393
7.12658e-10
-0.024393
7.06765e-10
-0.024393
7.00226e-10
-0.024393
6.93022e-10
-0.024393
6.85244e-10
-0.024393
6.7706e-10
-0.024393
6.68616e-10
-0.024393
6.59958e-10
-0.024393
6.51053e-10
-0.024393
6.41864e-10
-0.024393
6.32401e-10
-0.024393
6.2271e-10
-0.024393
6.1279e-10
-0.024393
6.0255e-10
-0.024393
5.91815e-10
-0.024393
5.80404e-10
-0.024393
5.68205e-10
-0.024393
5.55187e-10
-0.024393
5.4138e-10
-0.024393
5.26827e-10
-0.024393
5.11561e-10
-0.024393
4.95605e-10
-0.024393
4.78987e-10
-0.024393
4.6177e-10
-0.024393
4.44059e-10
-0.024393
4.2599e-10
-0.024393
4.07697e-10
-0.024393
3.89282e-10
-0.024393
3.70791e-10
-0.024393
3.52217e-10
-0.024393
3.33535e-10
-0.024393
3.14734e-10
-0.024393
2.95804e-10
-0.024393
2.7674e-10
-0.024393
2.57585e-10
-0.024393
2.38415e-10
-0.024393
2.19268e-10
-0.024393
2.0015e-10
-0.024393
1.81038e-10
-0.024393
1.61827e-10
-0.024393
1.42277e-10
-0.024393
1.2202e-10
-0.024393
1.00702e-10
-0.024393
7.80992e-11
-0.024393
5.37531e-11
-0.024393
2.74393e-11
-0.024393
-0.024393
1.92663e-11
-0.0244131
3.91549e-11
-0.0244131
6.00011e-11
-0.0244131
8.15157e-11
-0.0244131
1.0344e-10
-0.0244131
1.25788e-10
-0.0244131
1.48623e-10
-0.0244131
1.71513e-10
-0.0244131
1.94667e-10
-0.0244131
2.17872e-10
-0.0244131
2.41241e-10
-0.0244131
2.64886e-10
-0.0244131
2.88731e-10
-0.0244131
3.12842e-10
-0.0244131
3.37079e-10
-0.0244131
3.61454e-10
-0.0244131
3.8562e-10
-0.0244131
4.09697e-10
-0.0244131
4.33321e-10
-0.0244131
4.56265e-10
-0.0244131
4.78645e-10
-0.0244131
5.00045e-10
-0.0244131
5.20597e-10
-0.0244131
5.40373e-10
-0.0244131
5.59116e-10
-0.0244131
5.77084e-10
-0.0244131
5.9438e-10
-0.0244131
6.10866e-10
-0.0244131
6.26744e-10
-0.0244131
6.42101e-10
-0.0244131
6.56749e-10
-0.0244131
6.70722e-10
-0.0244131
6.84071e-10
-0.0244131
6.96527e-10
-0.0244131
7.07824e-10
-0.0244131
7.17916e-10
-0.0244131
7.26698e-10
-0.0244131
7.33959e-10
-0.0244131
7.39647e-10
-0.0244131
7.43893e-10
-0.0244131
7.46768e-10
-0.0244131
7.48284e-10
-0.0244131
7.48613e-10
-0.0244131
7.48097e-10
-0.0244131
7.47007e-10
-0.0244131
7.45408e-10
-0.0244131
7.433e-10
-0.0244131
7.40769e-10
-0.0244131
7.37929e-10
-0.0244131
7.34774e-10
-0.0244131
7.31163e-10
-0.0244131
7.26959e-10
-0.0244131
7.22133e-10
-0.0244131
7.16721e-10
-0.0244131
7.10722e-10
-0.0244131
7.04078e-10
-0.0244131
6.96758e-10
-0.0244131
6.88844e-10
-0.0244131
6.80509e-10
-0.0244131
6.71922e-10
-0.0244131
6.63153e-10
-0.0244131
6.54187e-10
-0.0244131
6.44987e-10
-0.0244131
6.35562e-10
-0.0244131
6.25949e-10
-0.0244131
6.16137e-10
-0.0244131
6.06018e-10
-0.0244131
5.95401e-10
-0.0244131
5.84087e-10
-0.0244131
5.71942e-10
-0.0244131
5.58925e-10
-0.0244131
5.4506e-10
-0.0244131
5.30401e-10
-0.0244131
5.14991e-10
-0.0244131
4.98854e-10
-0.0244131
4.82017e-10
-0.0244131
4.64546e-10
-0.0244131
4.4656e-10
-0.0244131
4.28209e-10
-0.0244131
4.0964e-10
-0.0244131
3.90969e-10
-0.0244131
3.72258e-10
-0.0244131
3.53494e-10
-0.0244131
3.34619e-10
-0.0244131
3.15592e-10
-0.0244131
2.96411e-10
-0.0244131
2.77081e-10
-0.0244131
2.5763e-10
-0.0244131
2.38131e-10
-0.0244131
2.18628e-10
-0.0244131
1.99093e-10
-0.0244131
1.79479e-10
-0.0244131
1.59672e-10
-0.0244131
1.39525e-10
-0.0244131
1.1876e-10
-0.0244131
9.70393e-11
-0.0244131
7.42783e-11
-0.0244131
5.04154e-11
-0.0244131
2.54591e-11
-0.0244131
-0.0244131
2.08257e-11
-0.024436
4.18057e-11
-0.024436
6.3234e-11
-0.024436
8.52669e-11
-0.024436
1.07457e-10
-0.024436
1.29622e-10
-0.024436
1.52137e-10
-0.024436
1.74745e-10
-0.024436
1.97544e-10
-0.024436
2.20574e-10
-0.024436
2.43818e-10
-0.024436
2.67369e-10
-0.024436
2.91256e-10
-0.024436
3.15438e-10
-0.024436
3.39796e-10
-0.024436
3.64439e-10
-0.024436
3.88892e-10
-0.024436
4.13265e-10
-0.024436
4.37215e-10
-0.024436
4.60459e-10
-0.024436
4.83128e-10
-0.024436
5.04813e-10
-0.024436
5.25593e-10
-0.024436
5.45538e-10
-0.024436
5.64443e-10
-0.024436
5.82589e-10
-0.024436
6.00058e-10
-0.024436
6.16703e-10
-0.024436
6.32754e-10
-0.024436
6.48314e-10
-0.024436
6.63204e-10
-0.024436
6.77448e-10
-0.024436
6.91068e-10
-0.024436
7.03757e-10
-0.024436
7.1524e-10
-0.024436
7.25481e-10
-0.024436
7.34378e-10
-0.024436
7.41683e-10
-0.024436
7.47307e-10
-0.024436
7.51371e-10
-0.024436
7.53976e-10
-0.024436
7.55183e-10
-0.024436
7.55204e-10
-0.024436
7.54393e-10
-0.024436
7.53014e-10
-0.024436
7.51134e-10
-0.024436
7.48773e-10
-0.024436
7.46045e-10
-0.024436
7.43073e-10
-0.024436
7.39829e-10
-0.024436
7.36138e-10
-0.024436
7.31841e-10
-0.024436
7.26911e-10
-0.024436
7.21398e-10
-0.024436
7.153e-10
-0.024436
7.08545e-10
-0.024436
7.01087e-10
-0.024436
6.93006e-10
-0.024436
6.845e-10
-0.024436
6.75761e-10
-0.024436
6.66884e-10
-0.024436
6.57856e-10
-0.024436
6.48643e-10
-0.024436
6.39251e-10
-0.024436
6.29713e-10
-0.024436
6.2001e-10
-0.024436
6.10017e-10
-0.024436
5.99521e-10
-0.024436
5.88301e-10
-0.024436
5.762e-10
-0.024436
5.63168e-10
-0.024436
5.49233e-10
-0.024436
5.34457e-10
-0.024436
5.18886e-10
-0.024436
5.02546e-10
-0.024436
4.8546e-10
-0.024436
4.67702e-10
-0.024436
4.49408e-10
-0.024436
4.30752e-10
-0.024436
4.11896e-10
-0.024436
3.92961e-10
-0.024436
3.74006e-10
-0.024436
3.5502e-10
-0.024436
3.35931e-10
-0.024436
3.16666e-10
-0.024436
2.97213e-10
-0.024436
2.77602e-10
-0.024436
2.57862e-10
-0.024436
2.38056e-10
-0.024436
2.18226e-10
-0.024436
1.98346e-10
-0.024436
1.78337e-10
-0.024436
1.58069e-10
-0.024436
1.37423e-10
-0.024436
1.16281e-10
-0.024436
9.4394e-11
-0.024436
7.1704e-11
-0.024436
4.82703e-11
-0.024436
2.42134e-11
-0.024436
-0.024436
2.23196e-11
-0.0244617
4.4134e-11
-0.0244617
6.60416e-11
-0.0244617
8.82769e-11
-0.0244617
1.10769e-10
-0.0244617
1.33083e-10
-0.0244617
1.55448e-10
-0.0244617
1.77925e-10
-0.0244617
2.00497e-10
-0.0244617
2.23378e-10
-0.0244617
2.46569e-10
-0.0244617
2.70076e-10
-0.0244617
2.93988e-10
-0.0244617
3.18325e-10
-0.0244617
3.42877e-10
-0.0244617
3.67787e-10
-0.0244617
3.92561e-10
-0.0244617
4.17254e-10
-0.0244617
4.4155e-10
-0.0244617
4.65163e-10
-0.0244617
4.88159e-10
-0.0244617
5.10108e-10
-0.0244617
5.31127e-10
-0.0244617
5.513e-10
-0.0244617
5.70413e-10
-0.0244617
5.88751e-10
-0.0244617
6.06401e-10
-0.0244617
6.23223e-10
-0.0244617
6.39475e-10
-0.0244617
6.55284e-10
-0.0244617
6.70456e-10
-0.0244617
6.84984e-10
-0.0244617
6.98866e-10
-0.0244617
7.11789e-10
-0.0244617
7.23484e-10
-0.0244617
7.33914e-10
-0.0244617
7.42939e-10
-0.0244617
7.50268e-10
-0.0244617
7.5579e-10
-0.0244617
7.59649e-10
-0.0244617
7.61987e-10
-0.0244617
7.629e-10
-0.0244617
7.62608e-10
-0.0244617
7.6147e-10
-0.0244617
7.59761e-10
-0.0244617
7.57574e-10
-0.0244617
7.54956e-10
-0.0244617
7.52034e-10
-0.0244617
7.48918e-10
-0.0244617
7.45554e-10
-0.0244617
7.41748e-10
-0.0244617
7.37338e-10
-0.0244617
7.32304e-10
-0.0244617
7.26695e-10
-0.0244617
7.20495e-10
-0.0244617
7.1361e-10
-0.0244617
7.05986e-10
-0.0244617
6.97718e-10
-0.0244617
6.8903e-10
-0.0244617
6.8014e-10
-0.0244617
6.71151e-10
-0.0244617
6.62056e-10
-0.0244617
6.52821e-10
-0.0244617
6.43456e-10
-0.0244617
6.33994e-10
-0.0244617
6.24403e-10
-0.0244617
6.14539e-10
-0.0244617
6.04163e-10
-0.0244617
5.93026e-10
-0.0244617
5.80957e-10
-0.0244617
5.67897e-10
-0.0244617
5.53881e-10
-0.0244617
5.38976e-10
-0.0244617
5.2323e-10
-0.0244617
5.06662e-10
-0.0244617
4.89301e-10
-0.0244617
4.71229e-10
-0.0244617
4.52598e-10
-0.0244617
4.3361e-10
-0.0244617
4.14454e-10
-0.0244617
3.95252e-10
-0.0244617
3.76044e-10
-0.0244617
3.56811e-10
-0.0244617
3.37482e-10
-0.0244617
3.17968e-10
-0.0244617
2.98241e-10
-0.0244617
2.78341e-10
-0.0244617
2.58321e-10
-0.0244617
2.38227e-10
-0.0244617
2.18093e-10
-0.0244617
1.97898e-10
-0.0244617
1.77566e-10
-0.0244617
1.56966e-10
-0.0244617
1.35961e-10
-0.0244617
1.14523e-10
-0.0244617
9.25237e-11
-0.0244617
6.99448e-11
-0.0244617
4.68609e-11
-0.0244617
2.34051e-11
-0.0244617
-0.0244617
2.33468e-11
-0.0244902
4.6022e-11
-0.0244902
6.86268e-11
-0.0244902
9.10965e-11
-0.0244902
1.13709e-10
-0.0244902
1.36202e-10
-0.0244902
1.58555e-10
-0.0244902
1.80979e-10
-0.0244902
2.03525e-10
-0.0244902
2.26273e-10
-0.0244902
2.49442e-10
-0.0244902
2.72971e-10
-0.0244902
2.96955e-10
-0.0244902
3.21483e-10
-0.0244902
3.46288e-10
-0.0244902
3.71467e-10
-0.0244902
3.96576e-10
-0.0244902
4.21668e-10
-0.0244902
4.46357e-10
-0.0244902
4.7033e-10
-0.0244902
4.93662e-10
-0.0244902
5.15913e-10
-0.0244902
5.37208e-10
-0.0244902
5.57641e-10
-0.0244902
5.76986e-10
-0.0244902
5.95526e-10
-0.0244902
6.13368e-10
-0.0244902
6.304e-10
-0.0244902
6.46902e-10
-0.0244902
6.62997e-10
-0.0244902
6.7846e-10
-0.0244902
6.93264e-10
-0.0244902
7.07414e-10
-0.0244902
7.20602e-10
-0.0244902
7.32549e-10
-0.0244902
7.43183e-10
-0.0244902
7.52321e-10
-0.0244902
7.59642e-10
-0.0244902
7.65046e-10
-0.0244902
7.68706e-10
-0.0244902
7.70794e-10
-0.0244902
7.71408e-10
-0.0244902
7.70778e-10
-0.0244902
7.69279e-10
-0.0244902
7.6722e-10
-0.0244902
7.64721e-10
-0.0244902
7.61847e-10
-0.0244902
7.58717e-10
-0.0244902
7.55429e-10
-0.0244902
7.51913e-10
-0.0244902
7.47973e-10
-0.0244902
7.43447e-10
-0.0244902
7.38314e-10
-0.0244902
7.32606e-10
-0.0244902
7.26287e-10
-0.0244902
7.19249e-10
-0.0244902
7.1144e-10
-0.0244902
7.02976e-10
-0.0244902
6.94103e-10
-0.0244902
6.85057e-10
-0.0244902
6.75947e-10
-0.0244902
6.66773e-10
-0.0244902
6.57508e-10
-0.0244902
6.4817e-10
-0.0244902
6.38785e-10
-0.0244902
6.2931e-10
-0.0244902
6.19572e-10
-0.0244902
6.09308e-10
-0.0244902
5.98243e-10
-0.0244902
5.86193e-10
-0.0244902
5.73096e-10
-0.0244902
5.5899e-10
-0.0244902
5.43944e-10
-0.0244902
5.28002e-10
-0.0244902
5.11182e-10
-0.0244902
4.9352e-10
-0.0244902
4.75114e-10
-0.0244902
4.56132e-10
-0.0244902
4.36796e-10
-0.0244902
4.17319e-10
-0.0244902
3.97834e-10
-0.0244902
3.78365e-10
-0.0244902
3.58868e-10
-0.0244902
3.39272e-10
-0.0244902
3.19498e-10
-0.0244902
2.99501e-10
-0.0244902
2.79321e-10
-0.0244902
2.59029e-10
-0.0244902
2.38664e-10
-0.0244902
2.18262e-10
-0.0244902
1.97776e-10
-0.0244902
1.77145e-10
-0.0244902
1.56268e-10
-0.0244902
1.35005e-10
-0.0244902
1.13352e-10
-0.0244902
9.12616e-11
-0.0244902
6.8765e-11
-0.0244902
4.59315e-11
-0.0244902
2.28736e-11
-0.0244902
-0.0244902
2.39276e-11
-0.0245216
4.74334e-11
-0.0245216
7.0787e-11
-0.0245216
9.37366e-11
-0.0245216
1.16493e-10
-0.0245216
1.39114e-10
-0.0245216
1.61569e-10
-0.0245216
1.83954e-10
-0.0245216
2.06551e-10
-0.0245216
2.29252e-10
-0.0245216
2.52416e-10
-0.0245216
2.76042e-10
-0.0245216
3.00177e-10
-0.0245216
3.24888e-10
-0.0245216
3.49955e-10
-0.0245216
3.7548e-10
-0.0245216
4.00975e-10
-0.0245216
4.2648e-10
-0.0245216
4.51579e-10
-0.0245216
4.75933e-10
-0.0245216
4.99624e-10
-0.0245216
5.22213e-10
-0.0245216
5.43823e-10
-0.0245216
5.64536e-10
-0.0245216
5.84115e-10
-0.0245216
6.02872e-10
-0.0245216
6.20943e-10
-0.0245216
6.38232e-10
-0.0245216
6.55019e-10
-0.0245216
6.71408e-10
-0.0245216
6.87156e-10
-0.0245216
7.02247e-10
-0.0245216
7.16696e-10
-0.0245216
7.30187e-10
-0.0245216
7.42403e-10
-0.0245216
7.5323e-10
-0.0245216
7.62458e-10
-0.0245216
7.69762e-10
-0.0245216
7.75056e-10
-0.0245216
7.78532e-10
-0.0245216
7.80367e-10
-0.0245216
7.80663e-10
-0.0245216
7.79667e-10
-0.0245216
7.77792e-10
-0.0245216
7.75379e-10
-0.0245216
7.7257e-10
-0.0245216
7.69427e-10
-0.0245216
7.66064e-10
-0.0245216
7.62572e-10
-0.0245216
7.58886e-10
-0.0245216
7.54806e-10
-0.0245216
7.50167e-10
-0.0245216
7.44933e-10
-0.0245216
7.39115e-10
-0.0245216
7.32658e-10
-0.0245216
7.25448e-10
-0.0245216
7.17444e-10
-0.0245216
7.08779e-10
-0.0245216
6.99716e-10
-0.0245216
6.90504e-10
-0.0245216
6.81261e-10
-0.0245216
6.71997e-10
-0.0245216
6.62698e-10
-0.0245216
6.53387e-10
-0.0245216
6.44082e-10
-0.0245216
6.34718e-10
-0.0245216
6.25101e-10
-0.0245216
6.14938e-10
-0.0245216
6.03935e-10
-0.0245216
5.91896e-10
-0.0245216
5.78755e-10
-0.0245216
5.64551e-10
-0.0245216
5.4935e-10
-0.0245216
5.33189e-10
-0.0245216
5.16089e-10
-0.0245216
4.98099e-10
-0.0245216
4.79337e-10
-0.0245216
4.59996e-10
-0.0245216
4.4031e-10
-0.0245216
4.20501e-10
-0.0245216
4.00713e-10
-0.0245216
3.80967e-10
-0.0245216
3.61195e-10
-0.0245216
3.41313e-10
-0.0245216
3.2126e-10
-0.0245216
3.00993e-10
-0.0245216
2.80545e-10
-0.0245216
2.59988e-10
-0.0245216
2.39368e-10
-0.0245216
2.18709e-10
-0.0245216
1.97971e-10
-0.0245216
1.77068e-10
-0.0245216
1.55934e-10
-0.0245216
1.34448e-10
-0.0245216
1.12622e-10
-0.0245216
9.04511e-11
-0.0245216
6.7998e-11
-0.0245216
4.53294e-11
-0.0245216
2.25264e-11
-0.0245216
-0.0245216
2.44523e-11
-0.0245557
4.8619e-11
-0.0245557
7.25747e-11
-0.0245557
9.60581e-11
-0.0245557
1.19124e-10
-0.0245557
1.41897e-10
-0.0245557
1.64508e-10
-0.0245557
1.86927e-10
-0.0245557
2.09522e-10
-0.0245557
2.32314e-10
-0.0245557
2.55535e-10
-0.0245557
2.79269e-10
-0.0245557
3.03583e-10
-0.0245557
3.28534e-10
-0.0245557
3.53904e-10
-0.0245557
3.79813e-10
-0.0245557
4.05731e-10
-0.0245557
4.31666e-10
-0.0245557
4.57185e-10
-0.0245557
4.81948e-10
-0.0245557
5.06041e-10
-0.0245557
5.29002e-10
-0.0245557
5.50941e-10
-0.0245557
5.71937e-10
-0.0245557
5.91768e-10
-0.0245557
6.10778e-10
-0.0245557
6.29124e-10
-0.0245557
6.46702e-10
-0.0245557
6.63782e-10
-0.0245557
6.80462e-10
-0.0245557
6.96509e-10
-0.0245557
7.11919e-10
-0.0245557
7.26705e-10
-0.0245557
7.40517e-10
-0.0245557
7.52994e-10
-0.0245557
7.63998e-10
-0.0245557
7.7331e-10
-0.0245557
7.80607e-10
-0.0245557
7.85806e-10
-0.0245557
7.89098e-10
-0.0245557
7.90663e-10
-0.0245557
7.90621e-10
-0.0245557
7.89249e-10
-0.0245557
7.86996e-10
-0.0245557
7.84231e-10
-0.0245557
7.811e-10
-0.0245557
7.77664e-10
-0.0245557
7.74038e-10
-0.0245557
7.70324e-10
-0.0245557
7.6646e-10
-0.0245557
7.62242e-10
-0.0245557
7.5749e-10
-0.0245557
7.52145e-10
-0.0245557
7.462e-10
-0.0245557
7.39589e-10
-0.0245557
7.32198e-10
-0.0245557
7.23994e-10
-0.0245557
7.15123e-10
-0.0245557
7.05862e-10
-0.0245557
6.9647e-10
-0.0245557
6.8708e-10
-0.0245557
6.77718e-10
-0.0245557
6.68385e-10
-0.0245557
6.59101e-10
-0.0245557
6.49874e-10
-0.0245557
6.40618e-10
-0.0245557
6.31111e-10
-0.0245557
6.21038e-10
-0.0245557
6.10088e-10
-0.0245557
5.98051e-10
-0.0245557
5.8486e-10
-0.0245557
5.7055e-10
-0.0245557
5.55177e-10
-0.0245557
5.38779e-10
-0.0245557
5.21377e-10
-0.0245557
5.03035e-10
-0.0245557
4.83895e-10
-0.0245557
4.6418e-10
-0.0245557
4.4414e-10
-0.0245557
4.23995e-10
-0.0245557
4.03888e-10
-0.0245557
3.83847e-10
-0.0245557
3.6379e-10
-0.0245557
3.43617e-10
-0.0245557
3.23268e-10
-0.0245557
3.02722e-10
-0.0245557
2.82014e-10
-0.0245557
2.61203e-10
-0.0245557
2.40335e-10
-0.0245557
2.1942e-10
-0.0245557
1.98437e-10
-0.0245557
1.77287e-10
-0.0245557
1.55917e-10
-0.0245557
1.34226e-10
-0.0245557
1.12236e-10
-0.0245557
8.99743e-11
-0.0245557
6.7525e-11
-0.0245557
4.49526e-11
-0.0245557
2.23032e-11
-0.0245557
-0.0245557
2.5037e-11
-0.0245927
4.9797e-11
-0.0245927
7.42375e-11
-0.0245927
9.81605e-11
-0.0245927
1.21612e-10
-0.0245927
1.44588e-10
-0.0245927
1.67332e-10
-0.0245927
1.89907e-10
-0.0245927
2.12536e-10
-0.0245927
2.35426e-10
-0.0245927
2.58769e-10
-0.0245927
2.82653e-10
-0.0245927
3.07171e-10
-0.0245927
3.32405e-10
-0.0245927
3.58136e-10
-0.0245927
3.8446e-10
-0.0245927
4.10811e-10
-0.0245927
4.37194e-10
-0.0245927
4.63165e-10
-0.0245927
4.88378e-10
-0.0245927
5.12903e-10
-0.0245927
5.36248e-10
-0.0245927
5.5852e-10
-0.0245927
5.79817e-10
-0.0245927
5.99936e-10
-0.0245927
6.19243e-10
-0.0245927
6.37893e-10
-0.0245927
6.55768e-10
-0.0245927
6.73141e-10
-0.0245927
6.90128e-10
-0.0245927
7.06506e-10
-0.0245927
7.22271e-10
-0.0245927
7.37414e-10
-0.0245927
7.51543e-10
-0.0245927
7.6427e-10
-0.0245927
7.7545e-10
-0.0245927
7.84859e-10
-0.0245927
7.92163e-10
-0.0245927
7.97268e-10
-0.0245927
8.00363e-10
-0.0245927
8.01644e-10
-0.0245927
8.01256e-10
-0.0245927
7.9951e-10
-0.0245927
7.96883e-10
-0.0245927
7.93756e-10
-0.0245927
7.9028e-10
-0.0245927
7.86523e-10
-0.0245927
7.82616e-10
-0.0245927
7.78671e-10
-0.0245927
7.74628e-10
-0.0245927
7.70271e-10
-0.0245927
7.65398e-10
-0.0245927
7.59929e-10
-0.0245927
7.53844e-10
-0.0245927
7.4707e-10
-0.0245927
7.39493e-10
-0.0245927
7.31085e-10
-0.0245927
7.22002e-10
-0.0245927
7.12529e-10
-0.0245927
7.02942e-10
-0.0245927
6.93394e-10
-0.0245927
6.83931e-10
-0.0245927
6.74562e-10
-0.0245927
6.65305e-10
-0.0245927
6.56151e-10
-0.0245927
6.46993e-10
-0.0245927
6.37588e-10
-0.0245927
6.27597e-10
-0.0245927
6.16692e-10
-0.0245927
6.04652e-10
-0.0245927
5.91403e-10
-0.0245927
5.7697e-10
-0.0245927
5.61406e-10
-0.0245927
5.44747e-10
-0.0245927
5.27029e-10
-0.0245927
5.08324e-10
-0.0245927
4.88795e-10
-0.0245927
4.68688e-10
-0.0245927
4.4828e-10
-0.0245927
4.27791e-10
-0.0245927
4.07354e-10
-0.0245927
3.86996e-10
-0.0245927
3.66643e-10
-0.0245927
3.4618e-10
-0.0245927
3.25534e-10
-0.0245927
3.04704e-10
-0.0245927
2.83722e-10
-0.0245927
2.62663e-10
-0.0245927
2.41553e-10