/*--------------------------------*- C++ -*----------------------------------*\
| =========                 |                                                 |
| \\      /  F ield         | OpenFOAM: The Open Source CFD Toolbox           |
|  \\    /   O peration     | Version:  2.3.x                                 |
|   \\  /    A nd           | Web:      www.OpenFOAM.org                      |
|    \\/     M anipulation  |                                                 |
\*---------------------------------------------------------------------------*/
FoamFile
{
    version     2.0;
    format      ascii;
    class       volVectorField;
    location    "0.08";
    object      U;
}
// * * * * * * * * * * * * * * * * * * * * * * * * * * * * * * * * * * * * * //

dimensions      [0 1 -1 0 0 0 0];

internalField   nonuniform List<vector> 
50000
(
(-9.07137e-11 -0.0240131 0)
(-1.24164e-10 -0.0240131 0)
(-3.84046e-11 -0.0240131 0)
(1.31198e-11 -0.0240131 0)
(5.17479e-11 -0.0240131 0)
(8.42516e-11 -0.0240131 0)
(1.13424e-10 -0.0240131 0)
(1.40766e-10 -0.0240131 0)
(1.67029e-10 -0.0240131 0)
(1.924e-10 -0.0240131 0)
(2.17006e-10 -0.0240131 0)
(2.4115e-10 -0.0240131 0)
(2.65047e-10 -0.0240131 0)
(2.88814e-10 -0.0240131 0)
(3.12489e-10 -0.0240131 0)
(3.35953e-10 -0.0240131 0)
(3.59117e-10 -0.0240131 0)
(3.81977e-10 -0.0240131 0)
(4.0441e-10 -0.0240131 0)
(4.26322e-10 -0.0240131 0)
(4.47667e-10 -0.0240131 0)
(4.68325e-10 -0.0240131 0)
(4.88279e-10 -0.0240131 0)
(5.0749e-10 -0.0240131 0)
(5.25911e-10 -0.0240131 0)
(5.43627e-10 -0.0240131 0)
(5.60617e-10 -0.0240131 0)
(5.76798e-10 -0.0240131 0)
(5.92283e-10 -0.0240131 0)
(6.0714e-10 -0.0240131 0)
(6.21222e-10 -0.0240131 0)
(6.34491e-10 -0.0240131 0)
(6.47071e-10 -0.0240131 0)
(6.58901e-10 -0.0240131 0)
(6.6974e-10 -0.0240131 0)
(6.79532e-10 -0.0240131 0)
(6.88354e-10 -0.0240131 0)
(6.96098e-10 -0.0240131 0)
(7.02569e-10 -0.0240131 0)
(7.07805e-10 -0.0240131 0)
(7.12001e-10 -0.0240131 0)
(7.152e-10 -0.0240131 0)
(7.17334e-10 -0.0240131 0)
(7.18486e-10 -0.0240131 0)
(7.18877e-10 -0.0240131 0)
(7.1863e-10 -0.0240131 0)
(7.17717e-10 -0.0240131 0)
(7.16123e-10 -0.0240131 0)
(7.1395e-10 -0.0240131 0)
(7.11317e-10 -0.0240131 0)
(7.08229e-10 -0.0240131 0)
(7.04594e-10 -0.0240131 0)
(7.00342e-10 -0.0240131 0)
(6.95499e-10 -0.0240131 0)
(6.90136e-10 -0.0240131 0)
(6.84283e-10 -0.0240131 0)
(6.77909e-10 -0.0240131 0)
(6.70984e-10 -0.0240131 0)
(6.63547e-10 -0.0240131 0)
(6.55701e-10 -0.0240131 0)
(6.47542e-10 -0.0240131 0)
(6.39098e-10 -0.0240131 0)
(6.3033e-10 -0.0240131 0)
(6.21176e-10 -0.0240131 0)
(6.11607e-10 -0.0240131 0)
(6.01626e-10 -0.0240131 0)
(5.91241e-10 -0.0240131 0)
(5.80421e-10 -0.0240131 0)
(5.69092e-10 -0.0240131 0)
(5.57167e-10 -0.0240131 0)
(5.44592e-10 -0.0240131 0)
(5.31368e-10 -0.0240131 0)
(5.17529e-10 -0.0240131 0)
(5.03114e-10 -0.0240131 0)
(4.88143e-10 -0.0240131 0)
(4.72627e-10 -0.0240131 0)
(4.56593e-10 -0.0240131 0)
(4.40097e-10 -0.0240131 0)
(4.23226e-10 -0.0240131 0)
(4.06072e-10 -0.0240131 0)
(3.88715e-10 -0.0240131 0)
(3.71198e-10 -0.0240131 0)
(3.53538e-10 -0.0240131 0)
(3.35741e-10 -0.0240131 0)
(3.17828e-10 -0.0240131 0)
(2.9985e-10 -0.0240131 0)
(2.81879e-10 -0.0240131 0)
(2.6399e-10 -0.0240131 0)
(2.46251e-10 -0.0240131 0)
(2.28741e-10 -0.0240131 0)
(2.11591e-10 -0.0240131 0)
(1.94985e-10 -0.0240131 0)
(1.79166e-10 -0.0240131 0)
(1.64498e-10 -0.0240131 0)
(1.51594e-10 -0.0240131 0)
(1.41596e-10 -0.0240131 0)
(1.37038e-10 -0.0240131 0)
(1.44964e-10 -0.0240131 0)
(1.8752e-10 -0.0240131 0)
(1.11695e-10 -0.0240131 0)
(-2.39639e-11 -0.0240158 0)
(-3.77096e-11 -0.0240158 0)
(-9.51892e-12 -0.0240158 0)
(2.52362e-11 -0.0240158 0)
(5.78045e-11 -0.0240158 0)
(8.76199e-11 -0.0240158 0)
(1.15438e-10 -0.0240158 0)
(1.42072e-10 -0.0240158 0)
(1.6795e-10 -0.0240158 0)
(1.93092e-10 -0.0240158 0)
(2.17554e-10 -0.0240158 0)
(2.41586e-10 -0.0240158 0)
(2.65434e-10 -0.0240158 0)
(2.89183e-10 -0.0240158 0)
(3.12842e-10 -0.0240158 0)
(3.3635e-10 -0.0240158 0)
(3.5956e-10 -0.0240158 0)
(3.82478e-10 -0.0240158 0)
(4.04994e-10 -0.0240158 0)
(4.26965e-10 -0.0240158 0)
(4.484e-10 -0.0240158 0)
(4.69102e-10 -0.0240158 0)
(4.89054e-10 -0.0240158 0)
(5.08348e-10 -0.0240158 0)
(5.26806e-10 -0.0240158 0)
(5.44472e-10 -0.0240158 0)
(5.61489e-10 -0.0240158 0)
(5.77737e-10 -0.0240158 0)
(5.93216e-10 -0.0240158 0)
(6.08057e-10 -0.0240158 0)
(6.22192e-10 -0.0240158 0)
(6.35543e-10 -0.0240158 0)
(6.48174e-10 -0.0240158 0)
(6.60032e-10 -0.0240158 0)
(6.70933e-10 -0.0240158 0)
(6.80821e-10 -0.0240158 0)
(6.89699e-10 -0.0240158 0)
(6.97426e-10 -0.0240158 0)
(7.03865e-10 -0.0240158 0)
(7.09101e-10 -0.0240158 0)
(7.13278e-10 -0.0240158 0)
(7.16393e-10 -0.0240158 0)
(7.18412e-10 -0.0240158 0)
(7.19476e-10 -0.0240158 0)
(7.19813e-10 -0.0240158 0)
(7.1951e-10 -0.0240158 0)
(7.18518e-10 -0.0240158 0)
(7.16849e-10 -0.0240158 0)
(7.14646e-10 -0.0240158 0)
(7.12035e-10 -0.0240158 0)
(7.08979e-10 -0.0240158 0)
(7.05346e-10 -0.0240158 0)
(7.01063e-10 -0.0240158 0)
(6.96191e-10 -0.0240158 0)
(6.90825e-10 -0.0240158 0)
(6.8498e-10 -0.0240158 0)
(6.7859e-10 -0.0240158 0)
(6.71611e-10 -0.0240158 0)
(6.64102e-10 -0.0240158 0)
(6.56202e-10 -0.0240158 0)
(6.48026e-10 -0.0240158 0)
(6.39593e-10 -0.0240158 0)
(6.30835e-10 -0.0240158 0)
(6.21676e-10 -0.0240158 0)
(6.12096e-10 -0.0240158 0)
(6.02121e-10 -0.0240158 0)
(5.91774e-10 -0.0240158 0)
(5.81016e-10 -0.0240158 0)
(5.69749e-10 -0.0240158 0)
(5.57862e-10 -0.0240158 0)
(5.45296e-10 -0.0240158 0)
(5.32062e-10 -0.0240158 0)
(5.18209e-10 -0.0240158 0)
(5.0378e-10 -0.0240158 0)
(4.88788e-10 -0.0240158 0)
(4.73235e-10 -0.0240158 0)
(4.57145e-10 -0.0240158 0)
(4.4058e-10 -0.0240158 0)
(4.23637e-10 -0.0240158 0)
(4.06419e-10 -0.0240158 0)
(3.89008e-10 -0.0240158 0)
(3.71447e-10 -0.0240158 0)
(3.53747e-10 -0.0240158 0)
(3.35908e-10 -0.0240158 0)
(3.17943e-10 -0.0240158 0)
(2.99903e-10 -0.0240158 0)
(2.81862e-10 -0.0240158 0)
(2.63893e-10 -0.0240158 0)
(2.46048e-10 -0.0240158 0)
(2.28401e-10 -0.0240158 0)
(2.1107e-10 -0.0240158 0)
(1.94206e-10 -0.0240158 0)
(1.77994e-10 -0.0240158 0)
(1.6268e-10 -0.0240158 0)
(1.48572e-10 -0.0240158 0)
(1.36018e-10 -0.0240158 0)
(1.25344e-10 -0.0240158 0)
(1.16274e-10 -0.0240158 0)
(1.01066e-10 -0.0240158 0)
(4.49128e-11 -0.0240158 0)
(-5.23441e-12 -0.0240213 0)
(-4.45534e-12 -0.0240213 0)
(1.3285e-11 -0.0240213 0)
(3.86348e-11 -0.0240213 0)
(6.59287e-11 -0.0240213 0)
(9.28628e-11 -0.0240213 0)
(1.18973e-10 -0.0240213 0)
(1.44473e-10 -0.0240213 0)
(1.69586e-10 -0.0240213 0)
(1.94287e-10 -0.0240213 0)
(2.18568e-10 -0.0240213 0)
(2.42496e-10 -0.0240213 0)
(2.66266e-10 -0.0240213 0)
(2.89991e-10 -0.0240213 0)
(3.13607e-10 -0.0240213 0)
(3.37155e-10 -0.0240213 0)
(3.60454e-10 -0.0240213 0)
(3.83474e-10 -0.0240213 0)
(4.06156e-10 -0.0240213 0)
(4.28219e-10 -0.0240213 0)
(4.49747e-10 -0.0240213 0)
(4.70605e-10 -0.0240213 0)
(4.90619e-10 -0.0240213 0)
(5.09941e-10 -0.0240213 0)
(5.28478e-10 -0.0240213 0)
(5.46193e-10 -0.0240213 0)
(5.63229e-10 -0.0240213 0)
(5.795e-10 -0.0240213 0)
(5.95017e-10 -0.0240213 0)
(6.09928e-10 -0.0240213 0)
(6.24144e-10 -0.0240213 0)
(6.37568e-10 -0.0240213 0)
(6.50294e-10 -0.0240213 0)
(6.62279e-10 -0.0240213 0)
(6.73309e-10 -0.0240213 0)
(6.83293e-10 -0.0240213 0)
(6.92218e-10 -0.0240213 0)
(6.9996e-10 -0.0240213 0)
(7.06409e-10 -0.0240213 0)
(7.11623e-10 -0.0240213 0)
(7.15706e-10 -0.0240213 0)
(7.18667e-10 -0.0240213 0)
(7.20536e-10 -0.0240213 0)
(7.21479e-10 -0.0240213 0)
(7.21689e-10 -0.0240213 0)
(7.21228e-10 -0.0240213 0)
(7.20083e-10 -0.0240213 0)
(7.18325e-10 -0.0240213 0)
(7.16109e-10 -0.0240213 0)
(7.13515e-10 -0.0240213 0)
(7.10453e-10 -0.0240213 0)
(7.06777e-10 -0.0240213 0)
(7.02451e-10 -0.0240213 0)
(6.97566e-10 -0.0240213 0)
(6.92207e-10 -0.0240213 0)
(6.86351e-10 -0.0240213 0)
(6.79898e-10 -0.0240213 0)
(6.72817e-10 -0.0240213 0)
(6.65209e-10 -0.0240213 0)
(6.57249e-10 -0.0240213 0)
(6.49052e-10 -0.0240213 0)
(6.4061e-10 -0.0240213 0)
(6.31833e-10 -0.0240213 0)
(6.22649e-10 -0.0240213 0)
(6.13063e-10 -0.0240213 0)
(6.03129e-10 -0.0240213 0)
(5.92867e-10 -0.0240213 0)
(5.82214e-10 -0.0240213 0)
(5.71034e-10 -0.0240213 0)
(5.59198e-10 -0.0240213 0)
(5.46651e-10 -0.0240213 0)
(5.33415e-10 -0.0240213 0)
(5.19548e-10 -0.0240213 0)
(5.05087e-10 -0.0240213 0)
(4.90039e-10 -0.0240213 0)
(4.74403e-10 -0.0240213 0)
(4.58207e-10 -0.0240213 0)
(4.41525e-10 -0.0240213 0)
(4.24462e-10 -0.0240213 0)
(4.07127e-10 -0.0240213 0)
(3.89605e-10 -0.0240213 0)
(3.71938e-10 -0.0240213 0)
(3.54141e-10 -0.0240213 0)
(3.36219e-10 -0.0240213 0)
(3.18176e-10 -0.0240213 0)
(3.00041e-10 -0.0240213 0)
(2.81873e-10 -0.0240213 0)
(2.63744e-10 -0.0240213 0)
(2.45704e-10 -0.0240213 0)
(2.27813e-10 -0.0240213 0)
(2.10169e-10 -0.0240213 0)
(1.92871e-10 -0.0240213 0)
(1.76007e-10 -0.0240213 0)
(1.59662e-10 -0.0240213 0)
(1.43875e-10 -0.0240213 0)
(1.28451e-10 -0.0240213 0)
(1.12571e-10 -0.0240213 0)
(9.41402e-11 -0.0240213 0)
(6.83156e-11 -0.0240213 0)
(2.63587e-11 -0.0240213 0)
(2.67659e-12 -0.0240295 0)
(1.18667e-11 -0.0240295 0)
(2.82209e-11 -0.0240295 0)
(4.96946e-11 -0.0240295 0)
(7.37289e-11 -0.0240295 0)
(9.85509e-11 -0.0240295 0)
(1.23234e-10 -0.0240295 0)
(1.47612e-10 -0.0240295 0)
(1.71858e-10 -0.0240295 0)
(1.95987e-10 -0.0240295 0)
(2.19982e-10 -0.0240295 0)
(2.43802e-10 -0.0240295 0)
(2.6748e-10 -0.0240295 0)
(2.91163e-10 -0.0240295 0)
(3.14774e-10 -0.0240295 0)
(3.38386e-10 -0.0240295 0)
(3.61834e-10 -0.0240295 0)
(3.84963e-10 -0.0240295 0)
(4.07813e-10 -0.0240295 0)
(4.30096e-10 -0.0240295 0)
(4.51754e-10 -0.0240295 0)
(4.72731e-10 -0.0240295 0)
(4.9289e-10 -0.0240295 0)
(5.12316e-10 -0.0240295 0)
(5.30926e-10 -0.0240295 0)
(5.48689e-10 -0.0240295 0)
(5.65767e-10 -0.0240295 0)
(5.82109e-10 -0.0240295 0)
(5.97705e-10 -0.0240295 0)
(6.12684e-10 -0.0240295 0)
(6.26989e-10 -0.0240295 0)
(6.40546e-10 -0.0240295 0)
(6.53437e-10 -0.0240295 0)
(6.65586e-10 -0.0240295 0)
(6.76748e-10 -0.0240295 0)
(6.86833e-10 -0.0240295 0)
(6.9585e-10 -0.0240295 0)
(7.03661e-10 -0.0240295 0)
(7.10107e-10 -0.0240295 0)
(7.15232e-10 -0.0240295 0)
(7.19178e-10 -0.0240295 0)
(7.2199e-10 -0.0240295 0)
(7.23693e-10 -0.0240295 0)
(7.24435e-10 -0.0240295 0)
(7.24415e-10 -0.0240295 0)
(7.2374e-10 -0.0240295 0)
(7.22442e-10 -0.0240295 0)
(7.20605e-10 -0.0240295 0)
(7.18352e-10 -0.0240295 0)
(7.1572e-10 -0.0240295 0)
(7.12603e-10 -0.0240295 0)
(7.08874e-10 -0.0240295 0)
(7.04524e-10 -0.0240295 0)
(6.9964e-10 -0.0240295 0)
(6.94271e-10 -0.0240295 0)
(6.88356e-10 -0.0240295 0)
(6.81798e-10 -0.0240295 0)
(6.74598e-10 -0.0240295 0)
(6.66894e-10 -0.0240295 0)
(6.58871e-10 -0.0240295 0)
(6.5063e-10 -0.0240295 0)
(6.42142e-10 -0.0240295 0)
(6.33317e-10 -0.0240295 0)
(6.24108e-10 -0.0240295 0)
(6.14545e-10 -0.0240295 0)
(6.0469e-10 -0.0240295 0)
(5.94543e-10 -0.0240295 0)
(5.84005e-10 -0.0240295 0)
(5.72916e-10 -0.0240295 0)
(5.61139e-10 -0.0240295 0)
(5.48622e-10 -0.0240295 0)
(5.35393e-10 -0.0240295 0)
(5.21502e-10 -0.0240295 0)
(5.06982e-10 -0.0240295 0)
(4.91839e-10 -0.0240295 0)
(4.76081e-10 -0.0240295 0)
(4.59745e-10 -0.0240295 0)
(4.42907e-10 -0.0240295 0)
(4.2568e-10 -0.0240295 0)
(4.08181e-10 -0.0240295 0)
(3.90497e-10 -0.0240295 0)
(3.72674e-10 -0.0240295 0)
(3.54734e-10 -0.0240295 0)
(3.36688e-10 -0.0240295 0)
(3.18541e-10 -0.0240295 0)
(3.0029e-10 -0.0240295 0)
(2.81961e-10 -0.0240295 0)
(2.63614e-10 -0.0240295 0)
(2.45313e-10 -0.0240295 0)
(2.27112e-10 -0.0240295 0)
(2.09076e-10 -0.0240295 0)
(1.91266e-10 -0.0240295 0)
(1.73674e-10 -0.0240295 0)
(1.56221e-10 -0.0240295 0)
(1.3877e-10 -0.0240295 0)
(1.21006e-10 -0.0240295 0)
(1.02078e-10 -0.0240295 0)
(8.02222e-11 -0.0240295 0)
(5.30564e-11 -0.0240295 0)
(1.89179e-11 -0.0240295 0)
(6.49569e-12 -0.0240406 0)
(2.07508e-11 -0.0240406 0)
(3.80492e-11 -0.0240406 0)
(5.82766e-11 -0.0240406 0)
(8.04752e-11 -0.0240406 0)
(1.03814e-10 -0.0240406 0)
(1.27512e-10 -0.0240406 0)
(1.51123e-10 -0.0240406 0)
(1.74665e-10 -0.0240406 0)
(1.98206e-10 -0.0240406 0)
(2.21781e-10 -0.0240406 0)
(2.45392e-10 -0.0240406 0)
(2.68984e-10 -0.0240406 0)
(2.92677e-10 -0.0240406 0)
(3.16361e-10 -0.0240406 0)
(3.40022e-10 -0.0240406 0)
(3.63629e-10 -0.0240406 0)
(3.86986e-10 -0.0240406 0)
(4.10012e-10 -0.0240406 0)
(4.32492e-10 -0.0240406 0)
(4.54364e-10 -0.0240406 0)
(4.75525e-10 -0.0240406 0)
(4.95847e-10 -0.0240406 0)
(5.15393e-10 -0.0240406 0)
(5.34081e-10 -0.0240406 0)
(5.51938e-10 -0.0240406 0)
(5.69113e-10 -0.0240406 0)
(5.85529e-10 -0.0240406 0)
(6.01198e-10 -0.0240406 0)
(6.1628e-10 -0.0240406 0)
(6.30732e-10 -0.0240406 0)
(6.4447e-10 -0.0240406 0)
(6.57542e-10 -0.0240406 0)
(6.69851e-10 -0.0240406 0)
(6.81175e-10 -0.0240406 0)
(6.91426e-10 -0.0240406 0)
(7.00567e-10 -0.0240406 0)
(7.08418e-10 -0.0240406 0)
(7.14823e-10 -0.0240406 0)
(7.1986e-10 -0.0240406 0)
(7.23682e-10 -0.0240406 0)
(7.26322e-10 -0.0240406 0)
(7.27791e-10 -0.0240406 0)
(7.28255e-10 -0.0240406 0)
(7.27962e-10 -0.0240406 0)
(7.27069e-10 -0.0240406 0)
(7.25623e-10 -0.0240406 0)
(7.23682e-10 -0.0240406 0)
(7.21336e-10 -0.0240406 0)
(7.18612e-10 -0.0240406 0)
(7.15422e-10 -0.0240406 0)
(7.11658e-10 -0.0240406 0)
(7.07299e-10 -0.0240406 0)
(7.02398e-10 -0.0240406 0)
(6.96973e-10 -0.0240406 0)
(6.90959e-10 -0.0240406 0)
(6.84282e-10 -0.0240406 0)
(6.7697e-10 -0.0240406 0)
(6.69173e-10 -0.0240406 0)
(6.61067e-10 -0.0240406 0)
(6.52743e-10 -0.0240406 0)
(6.44176e-10 -0.0240406 0)
(6.35297e-10 -0.0240406 0)
(6.26082e-10 -0.0240406 0)
(6.1657e-10 -0.0240406 0)
(6.06812e-10 -0.0240406 0)
(5.96784e-10 -0.0240406 0)
(5.86361e-10 -0.0240406 0)
(5.75368e-10 -0.0240406 0)
(5.63661e-10 -0.0240406 0)
(5.51185e-10 -0.0240406 0)
(5.37957e-10 -0.0240406 0)
(5.24023e-10 -0.0240406 0)
(5.09416e-10 -0.0240406 0)
(4.94152e-10 -0.0240406 0)
(4.78245e-10 -0.0240406 0)
(4.61735e-10 -0.0240406 0)
(4.44705e-10 -0.0240406 0)
(4.27271e-10 -0.0240406 0)
(4.0956e-10 -0.0240406 0)
(3.91676e-10 -0.0240406 0)
(3.73671e-10 -0.0240406 0)
(3.55566e-10 -0.0240406 0)
(3.37363e-10 -0.0240406 0)
(3.19063e-10 -0.0240406 0)
(3.00656e-10 -0.0240406 0)
(2.82135e-10 -0.0240406 0)
(2.63539e-10 -0.0240406 0)
(2.44938e-10 -0.0240406 0)
(2.26387e-10 -0.0240406 0)
(2.07932e-10 -0.0240406 0)
(1.89603e-10 -0.0240406 0)
(1.71346e-10 -0.0240406 0)
(1.52986e-10 -0.0240406 0)
(1.34247e-10 -0.0240406 0)
(1.14804e-10 -0.0240406 0)
(9.41576e-11 -0.0240406 0)
(7.13026e-11 -0.0240406 0)
(4.51153e-11 -0.0240406 0)
(1.55379e-11 -0.0240406 0)
(8.4076e-12 -0.0240544 0)
(2.57215e-11 -0.0240544 0)
(4.44799e-11 -0.0240544 0)
(6.48141e-11 -0.0240544 0)
(8.62562e-11 -0.0240544 0)
(1.08571e-10 -0.0240544 0)
(1.31475e-10 -0.0240544 0)
(1.54546e-10 -0.0240544 0)
(1.77639e-10 -0.0240544 0)
(2.00758e-10 -0.0240544 0)
(2.23955e-10 -0.0240544 0)
(2.47343e-10 -0.0240544 0)
(2.70836e-10 -0.0240544 0)
(2.94486e-10 -0.0240544 0)
(3.18268e-10 -0.0240544 0)
(3.42092e-10 -0.0240544 0)
(3.65864e-10 -0.0240544 0)
(3.89447e-10 -0.0240544 0)
(4.12713e-10 -0.0240544 0)
(4.35436e-10 -0.0240544 0)
(4.57567e-10 -0.0240544 0)
(4.78938e-10 -0.0240544 0)
(4.9942e-10 -0.0240544 0)
(5.19122e-10 -0.0240544 0)
(5.37953e-10 -0.0240544 0)
(5.55923e-10 -0.0240544 0)
(5.73194e-10 -0.0240544 0)
(5.89697e-10 -0.0240544 0)
(6.05477e-10 -0.0240544 0)
(6.20721e-10 -0.0240544 0)
(6.35353e-10 -0.0240544 0)
(6.49265e-10 -0.0240544 0)
(6.62525e-10 -0.0240544 0)
(6.75053e-10 -0.0240544 0)
(6.86593e-10 -0.0240544 0)
(6.97013e-10 -0.0240544 0)
(7.06254e-10 -0.0240544 0)
(7.14137e-10 -0.0240544 0)
(7.20521e-10 -0.0240544 0)
(7.25484e-10 -0.0240544 0)
(7.29165e-10 -0.0240544 0)
(7.31579e-10 -0.0240544 0)
(7.32752e-10 -0.0240544 0)
(7.32902e-10 -0.0240544 0)
(7.32336e-10 -0.0240544 0)
(7.3123e-10 -0.0240544 0)
(7.29611e-10 -0.0240544 0)
(7.2751e-10 -0.0240544 0)
(7.25019e-10 -0.0240544 0)
(7.22184e-10 -0.0240544 0)
(7.18933e-10 -0.0240544 0)
(7.15142e-10 -0.0240544 0)
(7.10757e-10 -0.0240544 0)
(7.05798e-10 -0.0240544 0)
(7.0028e-10 -0.0240544 0)
(6.94155e-10 -0.0240544 0)
(6.87368e-10 -0.0240544 0)
(6.79948e-10 -0.0240544 0)
(6.72038e-10 -0.0240544 0)
(6.63813e-10 -0.0240544 0)
(6.55373e-10 -0.0240544 0)
(6.46716e-10 -0.0240544 0)
(6.37794e-10 -0.0240544 0)
(6.28589e-10 -0.0240544 0)
(6.19139e-10 -0.0240544 0)
(6.09479e-10 -0.0240544 0)
(5.99568e-10 -0.0240544 0)
(5.89263e-10 -0.0240544 0)
(5.78374e-10 -0.0240544 0)
(5.66746e-10 -0.0240544 0)
(5.54309e-10 -0.0240544 0)
(5.41071e-10 -0.0240544 0)
(5.27073e-10 -0.0240544 0)
(5.12358e-10 -0.0240544 0)
(4.96951e-10 -0.0240544 0)
(4.80871e-10 -0.0240544 0)
(4.64159e-10 -0.0240544 0)
(4.469e-10 -0.0240544 0)
(4.2922e-10 -0.0240544 0)
(4.11258e-10 -0.0240544 0)
(3.93135e-10 -0.0240544 0)
(3.74926e-10 -0.0240544 0)
(3.56646e-10 -0.0240544 0)
(3.38273e-10 -0.0240544 0)
(3.19788e-10 -0.0240544 0)
(3.01177e-10 -0.0240544 0)
(2.82429e-10 -0.0240544 0)
(2.63566e-10 -0.0240544 0)
(2.44651e-10 -0.0240544 0)
(2.25744e-10 -0.0240544 0)
(2.06873e-10 -0.0240544 0)
(1.88035e-10 -0.0240544 0)
(1.69173e-10 -0.0240544 0)
(1.50117e-10 -0.0240544 0)
(1.30559e-10 -0.0240544 0)
(1.10143e-10 -0.0240544 0)
(8.85933e-11 -0.0240544 0)
(6.55194e-11 -0.0240544 0)
(4.04777e-11 -0.0240544 0)
(1.3712e-11 -0.0240544 0)
(9.43804e-12 -0.024071 0)
(2.86461e-11 -0.024071 0)
(4.86851e-11 -0.024071 0)
(6.96123e-11 -0.024071 0)
(9.10962e-11 -0.024071 0)
(1.12975e-10 -0.024071 0)
(1.35288e-10 -0.024071 0)
(1.57859e-10 -0.024071 0)
(1.80572e-10 -0.024071 0)
(2.03427e-10 -0.024071 0)
(2.2639e-10 -0.024071 0)
(2.49572e-10 -0.024071 0)
(2.72993e-10 -0.024071 0)
(2.96655e-10 -0.024071 0)
(3.2052e-10 -0.024071 0)
(3.44525e-10 -0.024071 0)
(3.68504e-10 -0.024071 0)
(3.9234e-10 -0.024071 0)
(4.15911e-10 -0.024071 0)
(4.38915e-10 -0.024071 0)
(4.613e-10 -0.024071 0)
(4.82914e-10 -0.024071 0)
(5.03609e-10 -0.024071 0)
(5.23502e-10 -0.024071 0)
(5.42491e-10 -0.024071 0)
(5.60578e-10 -0.024071 0)
(5.77961e-10 -0.024071 0)
(5.94608e-10 -0.024071 0)
(6.1055e-10 -0.024071 0)
(6.25956e-10 -0.024071 0)
(6.40765e-10 -0.024071 0)
(6.54889e-10 -0.024071 0)
(6.68394e-10 -0.024071 0)
(6.81172e-10 -0.024071 0)
(6.92928e-10 -0.024071 0)
(7.03507e-10 -0.024071 0)
(7.12851e-10 -0.024071 0)
(7.2079e-10 -0.024071 0)
(7.27174e-10 -0.024071 0)
(7.32053e-10 -0.024071 0)
(7.35546e-10 -0.024071 0)
(7.37681e-10 -0.024071 0)
(7.38534e-10 -0.024071 0)
(7.38376e-10 -0.024071 0)
(7.37542e-10 -0.024071 0)
(7.36198e-10 -0.024071 0)
(7.34355e-10 -0.024071 0)
(7.32047e-10 -0.024071 0)
(7.29391e-10 -0.024071 0)
(7.26452e-10 -0.024071 0)
(7.23144e-10 -0.024071 0)
(7.19308e-10 -0.024071 0)
(7.14856e-10 -0.024071 0)
(7.09806e-10 -0.024071 0)
(7.04185e-10 -0.024071 0)
(6.97957e-10 -0.024071 0)
(6.91062e-10 -0.024071 0)
(6.83517e-10 -0.024071 0)
(6.75464e-10 -0.024071 0)
(6.67089e-10 -0.024071 0)
(6.58521e-10 -0.024071 0)
(6.49777e-10 -0.024071 0)
(6.40819e-10 -0.024071 0)
(6.31629e-10 -0.024071 0)
(6.2224e-10 -0.024071 0)
(6.12676e-10 -0.024071 0)
(6.02882e-10 -0.024071 0)
(5.92701e-10 -0.024071 0)
(5.81923e-10 -0.024071 0)
(5.70375e-10 -0.024071 0)
(5.57968e-10 -0.024071 0)
(5.44702e-10 -0.024071 0)
(5.30623e-10 -0.024071 0)
(5.15784e-10 -0.024071 0)
(5.00216e-10 -0.024071 0)
(4.83939e-10 -0.024071 0)
(4.66994e-10 -0.024071 0)
(4.49473e-10 -0.024071 0)
(4.31515e-10 -0.024071 0)
(4.13276e-10 -0.024071 0)
(3.9489e-10 -0.024071 0)
(3.76447e-10 -0.024071 0)
(3.57969e-10 -0.024071 0)
(3.39414e-10 -0.024071 0)
(3.20727e-10 -0.024071 0)
(3.01882e-10 -0.024071 0)
(2.82881e-10 -0.024071 0)
(2.63743e-10 -0.024071 0)
(2.44523e-10 -0.024071 0)
(2.25283e-10 -0.024071 0)
(2.06037e-10 -0.024071 0)
(1.86749e-10 -0.024071 0)
(1.67342e-10 -0.024071 0)
(1.4769e-10 -0.024071 0)
(1.27572e-10 -0.024071 0)
(1.06671e-10 -0.024071 0)
(8.47753e-11 -0.024071 0)
(6.17899e-11 -0.024071 0)
(3.76448e-11 -0.024071 0)
(1.26395e-11 -0.024071 0)
(1.02521e-11 -0.0240904 0)
(3.08229e-11 -0.0240904 0)
(5.16955e-11 -0.0240904 0)
(7.3139e-11 -0.0240904 0)
(9.49798e-11 -0.0240904 0)
(1.16878e-10 -0.0240904 0)
(1.3892e-10 -0.0240904 0)
(1.61171e-10 -0.0240904 0)
(1.83559e-10 -0.0240904 0)
(2.06149e-10 -0.0240904 0)
(2.28958e-10 -0.0240904 0)
(2.52029e-10 -0.0240904 0)
(2.75422e-10 -0.0240904 0)
(2.99138e-10 -0.0240904 0)
(3.23099e-10 -0.0240904 0)
(3.47299e-10 -0.0240904 0)
(3.71552e-10 -0.0240904 0)
(3.95678e-10 -0.0240904 0)
(4.19559e-10 -0.0240904 0)
(4.42874e-10 -0.0240904 0)
(4.65552e-10 -0.0240904 0)
(4.87448e-10 -0.0240904 0)
(5.08394e-10 -0.0240904 0)
(5.2848e-10 -0.0240904 0)
(5.47629e-10 -0.0240904 0)
(5.6588e-10 -0.0240904 0)
(5.83432e-10 -0.0240904 0)
(6.00239e-10 -0.0240904 0)
(6.16341e-10 -0.0240904 0)
(6.31929e-10 -0.0240904 0)
(6.46957e-10 -0.0240904 0)
(6.61337e-10 -0.0240904 0)
(6.75114e-10 -0.0240904 0)
(6.88144e-10 -0.0240904 0)
(7.00108e-10 -0.0240904 0)
(7.10854e-10 -0.0240904 0)
(7.20332e-10 -0.0240904 0)
(7.28355e-10 -0.0240904 0)
(7.34731e-10 -0.0240904 0)
(7.39486e-10 -0.0240904 0)
(7.4275e-10 -0.0240904 0)
(7.44591e-10 -0.0240904 0)
(7.45132e-10 -0.0240904 0)
(7.44673e-10 -0.0240904 0)
(7.4355e-10 -0.0240904 0)
(7.41923e-10 -0.0240904 0)
(7.39812e-10 -0.0240904 0)
(7.37281e-10 -0.0240904 0)
(7.34464e-10 -0.0240904 0)
(7.31421e-10 -0.0240904 0)
(7.28034e-10 -0.0240904 0)
(7.24116e-10 -0.0240904 0)
(7.19568e-10 -0.0240904 0)
(7.14417e-10 -0.0240904 0)
(7.08699e-10 -0.0240904 0)
(7.0237e-10 -0.0240904 0)
(6.95353e-10 -0.0240904 0)
(6.87657e-10 -0.0240904 0)
(6.79432e-10 -0.0240904 0)
(6.70894e-10 -0.0240904 0)
(6.62194e-10 -0.0240904 0)
(6.53365e-10 -0.0240904 0)
(6.44371e-10 -0.0240904 0)
(6.35193e-10 -0.0240904 0)
(6.25859e-10 -0.0240904 0)
(6.16391e-10 -0.0240904 0)
(6.06718e-10 -0.0240904 0)
(5.96665e-10 -0.0240904 0)
(5.85999e-10 -0.0240904 0)
(5.74523e-10 -0.0240904 0)
(5.62133e-10 -0.0240904 0)
(5.48825e-10 -0.0240904 0)
(5.34653e-10 -0.0240904 0)
(5.19677e-10 -0.0240904 0)
(5.03931e-10 -0.0240904 0)
(4.8743e-10 -0.0240904 0)
(4.7022e-10 -0.0240904 0)
(4.52403e-10 -0.0240904 0)
(4.3414e-10 -0.0240904 0)
(4.15606e-10 -0.0240904 0)
(3.96949e-10 -0.0240904 0)
(3.78258e-10 -0.0240904 0)
(3.59555e-10 -0.0240904 0)
(3.40791e-10 -0.0240904 0)
(3.21884e-10 -0.0240904 0)
(3.0279e-10 -0.0240904 0)
(2.83517e-10 -0.0240904 0)
(2.64098e-10 -0.0240904 0)
(2.44586e-10 -0.0240904 0)
(2.25038e-10 -0.0240904 0)
(2.05466e-10 -0.0240904 0)
(1.85816e-10 -0.0240904 0)
(1.65982e-10 -0.0240904 0)
(1.45843e-10 -0.0240904 0)
(1.25276e-10 -0.0240904 0)
(1.04086e-10 -0.0240904 0)
(8.21121e-11 -0.0240904 0)
(5.93439e-11 -0.0240904 0)
(3.58598e-11 -0.0240904 0)
(1.19768e-11 -0.0240904 0)
(1.10179e-11 -0.0241126 0)
(3.27697e-11 -0.0241126 0)
(5.43006e-11 -0.0241126 0)
(7.60629e-11 -0.0241126 0)
(9.81365e-11 -0.0241126 0)
(1.20242e-10 -0.0241126 0)
(1.42272e-10 -0.0241126 0)
(1.64369e-10 -0.0241126 0)
(1.86566e-10 -0.0241126 0)
(2.08962e-10 -0.0241126 0)
(2.31665e-10 -0.0241126 0)
(2.54683e-10 -0.0241126 0)
(2.78065e-10 -0.0241126 0)
(3.01867e-10 -0.0241126 0)
(3.26e-10 -0.0241126 0)
(3.50429e-10 -0.0241126 0)
(3.74974e-10 -0.0241126 0)
(3.99419e-10 -0.0241126 0)
(4.23633e-10 -0.0241126 0)
(4.47302e-10 -0.0241126 0)
(4.70324e-10 -0.0241126 0)
(4.92512e-10 -0.0241126 0)
(5.13704e-10 -0.0241126 0)
(5.34017e-10 -0.0241126 0)
(5.53377e-10 -0.0241126 0)
(5.71822e-10 -0.0241126 0)
(5.89555e-10 -0.0241126 0)
(6.06533e-10 -0.0241126 0)
(6.22817e-10 -0.0241126 0)
(6.38626e-10 -0.0241126 0)
(6.53918e-10 -0.0241126 0)
(6.6858e-10 -0.0241126 0)
(6.82628e-10 -0.0241126 0)
(6.95904e-10 -0.0241126 0)
(7.0809e-10 -0.0241126 0)
(7.19038e-10 -0.0241126 0)
(7.28678e-10 -0.0241126 0)
(7.3678e-10 -0.0241126 0)
(7.43117e-10 -0.0241126 0)
(7.47717e-10 -0.0241126 0)
(7.5074e-10 -0.0241126 0)
(7.52298e-10 -0.0241126 0)
(7.52536e-10 -0.0241126 0)
(7.51758e-10 -0.0241126 0)
(7.50307e-10 -0.0241126 0)
(7.48361e-10 -0.0241126 0)
(7.45969e-10 -0.0241126 0)
(7.43215e-10 -0.0241126 0)
(7.40234e-10 -0.0241126 0)
(7.37065e-10 -0.0241126 0)
(7.33567e-10 -0.0241126 0)
(7.29537e-10 -0.0241126 0)
(7.24883e-10 -0.0241126 0)
(7.19635e-10 -0.0241126 0)
(7.13823e-10 -0.0241126 0)
(7.07383e-10 -0.0241126 0)
(7.0022e-10 -0.0241126 0)
(6.92346e-10 -0.0241126 0)
(6.83935e-10 -0.0241126 0)
(6.75228e-10 -0.0241126 0)
(6.66397e-10 -0.0241126 0)
(6.5748e-10 -0.0241126 0)
(6.48441e-10 -0.0241126 0)
(6.39267e-10 -0.0241126 0)
(6.29987e-10 -0.0241126 0)
(6.20615e-10 -0.0241126 0)
(6.11068e-10 -0.0241125 0)
(6.01144e-10 -0.0241125 0)
(5.90585e-10 -0.0241125 0)
(5.79169e-10 -0.0241125 0)
(5.66782e-10 -0.0241125 0)
(5.5342e-10 -0.0241125 0)
(5.39145e-10 -0.0241125 0)
(5.24021e-10 -0.0241125 0)
(5.08077e-10 -0.0241125 0)
(4.91328e-10 -0.0241125 0)
(4.73824e-10 -0.0241125 0)
(4.55683e-10 -0.0241125 0)
(4.37087e-10 -0.0241125 0)
(4.1824e-10 -0.0241125 0)
(3.99304e-10 -0.0241125 0)
(3.8036e-10 -0.0241125 0)
(3.61415e-10 -0.0241125 0)
(3.42414e-10 -0.0241125 0)
(3.2327e-10 -0.0241125 0)
(3.03919e-10 -0.0241125 0)
(2.84368e-10 -0.0241125 0)
(2.6467e-10 -0.0241125 0)
(2.44879e-10 -0.0241125 0)
(2.25042e-10 -0.0241125 0)
(2.05168e-10 -0.0241125 0)
(1.85207e-10 -0.0241125 0)
(1.65049e-10 -0.0241125 0)
(1.44557e-10 -0.0241125 0)
(1.2365e-10 -0.0241125 0)
(1.02244e-10 -0.0241125 0)
(8.02578e-11 -0.0241125 0)
(5.77085e-11 -0.0241125 0)
(3.47019e-11 -0.0241125 0)
(1.15516e-11 -0.0241126 0)
(1.15408e-11 -0.0241375 0)
(3.42481e-11 -0.0241375 0)
(5.65583e-11 -0.0241375 0)
(7.87718e-11 -0.0241375 0)
(1.01008e-10 -0.0241375 0)
(1.23247e-10 -0.0241375 0)
(1.45349e-10 -0.0241375 0)
(1.67406e-10 -0.0241375 0)
(1.89551e-10 -0.0241375 0)
(2.1186e-10 -0.0241375 0)
(2.3448e-10 -0.0241375 0)
(2.57491e-10 -0.0241375 0)
(2.80917e-10 -0.0241375 0)
(3.04848e-10 -0.0241375 0)
(3.29197e-10 -0.0241375 0)
(3.53886e-10 -0.0241375 0)
(3.78732e-10 -0.0241375 0)
(4.03541e-10 -0.0241375 0)
(4.28148e-10 -0.0241375 0)
(4.52192e-10 -0.0241375 0)
(4.75558e-10 -0.0241375 0)
(4.98059e-10 -0.0241375 0)
(5.19533e-10 -0.0241375 0)
(5.40109e-10 -0.0241375 0)
(5.59709e-10 -0.0241375 0)
(5.78363e-10 -0.0241375 0)
(5.96285e-10 -0.0241375 0)
(6.13456e-10 -0.0241375 0)
(6.29964e-10 -0.0241375 0)
(6.46039e-10 -0.0241375 0)
(6.61617e-10 -0.0241375 0)
(6.76559e-10 -0.0241375 0)
(6.90876e-10 -0.0241375 0)
(7.04417e-10 -0.0241375 0)
(7.16861e-10 -0.0241375 0)
(7.2804e-10 -0.0241375 0)
(7.37843e-10 -0.0241375 0)
(7.46e-10 -0.0241375 0)
(7.52272e-10 -0.0241375 0)
(7.5671e-10 -0.0241375 0)
(7.59506e-10 -0.0241375 0)
(7.60789e-10 -0.0241375 0)
(7.60709e-10 -0.0241375 0)
(7.59581e-10 -0.0241375 0)
(7.57773e-10 -0.0241375 0)
(7.55496e-10 -0.0241375 0)
(7.52823e-10 -0.0241375 0)
(7.49841e-10 -0.0241375 0)
(7.46676e-10 -0.0241375 0)
(7.4335e-10 -0.0241375 0)
(7.39713e-10 -0.0241375 0)
(7.35561e-10 -0.0241375 0)
(7.30803e-10 -0.0241375 0)
(7.25461e-10 -0.0241375 0)
(7.19547e-10 -0.0241375 0)
(7.12975e-10 -0.0241375 0)
(7.05643e-10 -0.0241375 0)
(6.97577e-10 -0.0241375 0)
(6.88973e-10 -0.0241375 0)
(6.80095e-10 -0.0241375 0)
(6.71126e-10 -0.0241375 0)
(6.6211e-10 -0.0241375 0)
(6.53017e-10 -0.0241375 0)
(6.43842e-10 -0.0241375 0)
(6.34616e-10 -0.0241375 0)
(6.25345e-10 -0.0241375 0)
(6.15923e-10 -0.0241375 0)
(6.06124e-10 -0.0241375 0)
(5.95661e-10 -0.0241375 0)
(5.84294e-10 -0.0241375 0)
(5.71899e-10 -0.0241375 0)
(5.58475e-10 -0.0241375 0)
(5.44087e-10 -0.0241375 0)
(5.28797e-10 -0.0241375 0)
(5.12632e-10 -0.0241375 0)
(4.9561e-10 -0.0241375 0)
(4.77791e-10 -0.0241375 0)
(4.59308e-10 -0.0241375 0)
(4.40363e-10 -0.0241375 0)
(4.21185e-10 -0.0241375 0)
(4.01953e-10 -0.0241375 0)
(3.82745e-10 -0.0241375 0)
(3.63545e-10 -0.0241375 0)
(3.44286e-10 -0.0241375 0)
(3.24884e-10 -0.0241375 0)
(3.05273e-10 -0.0241375 0)
(2.85451e-10 -0.0241375 0)
(2.65482e-10 -0.0241375 0)
(2.45427e-10 -0.0241375 0)
(2.25326e-10 -0.0241375 0)
(2.05177e-10 -0.0241375 0)
(1.84926e-10 -0.0241375 0)
(1.64483e-10 -0.0241375 0)
(1.43721e-10 -0.0241375 0)
(1.22569e-10 -0.0241375 0)
(1.01001e-10 -0.0241375 0)
(7.90055e-11 -0.0241375 0)
(5.66207e-11 -0.0241375 0)
(3.39424e-11 -0.0241375 0)
(1.12734e-11 -0.0241375 0)
(1.1831e-11 -0.0241652 0)
(3.5249e-11 -0.0241652 0)
(5.83521e-11 -0.0241652 0)
(8.11772e-11 -0.0241652 0)
(1.0371e-10 -0.0241652 0)
(1.26072e-10 -0.0241652 0)
(1.48275e-10 -0.0241652 0)
(1.70355e-10 -0.0241652 0)
(1.92499e-10 -0.0241652 0)
(2.148e-10 -0.0241652 0)
(2.37388e-10 -0.0241652 0)
(2.60438e-10 -0.0241652 0)
(2.83981e-10 -0.0241652 0)
(3.08075e-10 -0.0241652 0)
(3.32645e-10 -0.0241652 0)
(3.57632e-10 -0.0241652 0)
(3.82841e-10 -0.0241652 0)
(4.08049e-10 -0.0241652 0)
(4.33066e-10 -0.0241652 0)
(4.575e-10 -0.0241652 0)
(4.81231e-10 -0.0241652 0)
(5.04074e-10 -0.0241652 0)
(5.2587e-10 -0.0241652 0)
(5.46737e-10 -0.0241652 0)
(5.66588e-10 -0.0241652 0)
(5.85458e-10 -0.0241652 0)
(6.03593e-10 -0.0241652 0)
(6.21001e-10 -0.0241652 0)
(6.37776e-10 -0.0241652 0)
(6.54136e-10 -0.0241652 0)
(6.7e-10 -0.0241652 0)
(6.85224e-10 -0.0241652 0)
(6.99831e-10 -0.0241652 0)
(7.13672e-10 -0.0241652 0)
(7.26405e-10 -0.0241652 0)
(7.37818e-10 -0.0241652 0)
(7.47764e-10 -0.0241652 0)
(7.55956e-10 -0.0241652 0)
(7.62163e-10 -0.0241652 0)
(7.66452e-10 -0.0241652 0)
(7.6903e-10 -0.0241652 0)
(7.70027e-10 -0.0241652 0)
(7.69604e-10 -0.0241652 0)
(7.68103e-10 -0.0241652 0)
(7.65929e-10 -0.0241652 0)
(7.63323e-10 -0.0241652 0)
(7.60364e-10 -0.0241652 0)
(7.57135e-10 -0.0241652 0)
(7.53756e-10 -0.0241652 0)
(7.50247e-10 -0.0241652 0)
(7.46457e-10 -0.0241652 0)
(7.42184e-10 -0.0241652 0)
(7.37324e-10 -0.0241652 0)
(7.31883e-10 -0.0241652 0)
(7.2585e-10 -0.0241652 0)
(7.19125e-10 -0.0241652 0)
(7.1161e-10 -0.0241652 0)
(7.03345e-10 -0.0241652 0)
(6.94545e-10 -0.0241652 0)
(6.8549e-10 -0.0241652 0)
(6.76371e-10 -0.0241652 0)
(6.67243e-10 -0.0241652 0)
(6.58089e-10 -0.0241652 0)
(6.48911e-10 -0.0241652 0)
(6.39741e-10 -0.0241652 0)
(6.3057e-10 -0.0241652 0)
(6.21271e-10 -0.0241652 0)
(6.11587e-10 -0.0241652 0)
(6.0121e-10 -0.0241652 0)
(5.89882e-10 -0.0241652 0)
(5.77471e-10 -0.0241652 0)
(5.63979e-10 -0.0241652 0)
(5.49468e-10 -0.0241652 0)
(5.33995e-10 -0.0241652 0)
(5.17584e-10 -0.0241652 0)
(5.00259e-10 -0.0241652 0)
(4.82099e-10 -0.0241652 0)
(4.6326e-10 -0.0241652 0)
(4.43964e-10 -0.0241652 0)
(4.24449e-10 -0.0241652 0)
(4.04906e-10 -0.0241652 0)
(3.85416e-10 -0.0241652 0)
(3.65947e-10 -0.0241652 0)
(3.46414e-10 -0.0241652 0)
(3.26734e-10 -0.0241652 0)
(3.06853e-10 -0.0241652 0)
(2.86767e-10 -0.0241652 0)