/*--------------------------------*- C++ -*----------------------------------*\
| =========                 |                                                 |
| \\      /  F ield         | OpenFOAM: The Open Source CFD Toolbox           |
|  \\    /   O peration     | Version:  2.3.x                                 |
|   \\  /    A nd           | Web:      www.OpenFOAM.org                      |
|    \\/     M anipulation  |                                                 |
\*---------------------------------------------------------------------------*/
FoamFile
{
    version     2.0;
    format      ascii;
    class       surfaceScalarField;
    location    "0.06";
    object      phi;
}
// * * * * * * * * * * * * * * * * * * * * * * * * * * * * * * * * * * * * * //

dimensions      [1 0 -1 0 0 0 0];

internalField   nonuniform List<scalar> 
99400
(
-2.60205e-11
-0.00798879
-3.67803e-12
-0.00798879
7.73607e-12
-0.00798879
2.04756e-11
-0.00798879
3.17748e-11
-0.00798879
4.22274e-11
-0.00798879
5.21884e-11
-0.00798879
6.17811e-11
-0.00798879
7.10754e-11
-0.00798879
8.00068e-11
-0.00798879
8.86514e-11
-0.00798879
9.70363e-11
-0.00798879
1.05116e-10
-0.00798879
1.13011e-10
-0.00798879
1.20667e-10
-0.00798879
1.28175e-10
-0.00798879
1.35538e-10
-0.00798879
1.42847e-10
-0.00798879
1.50113e-10
-0.00798879
1.57255e-10
-0.00798879
1.64408e-10
-0.00798879
1.71421e-10
-0.00798879
1.78272e-10
-0.00798879
1.85032e-10
-0.00798879
1.91492e-10
-0.00798879
1.97731e-10
-0.00798879
2.03798e-10
-0.00798879
2.09479e-10
-0.00798879
2.14923e-10
-0.00798879
2.20307e-10
-0.00798879
2.25403e-10
-0.00798879
2.30199e-10
-0.00798879
2.34983e-10
-0.00798879
2.39692e-10
-0.00798879
2.44052e-10
-0.00798879
2.48132e-10
-0.00798879
2.5211e-10
-0.00798879
2.55828e-10
-0.00798879
2.59071e-10
-0.00798879
2.61919e-10
-0.00798879
2.6452e-10
-0.00798879
2.66814e-10
-0.00798879
2.68696e-10
-0.00798879
2.70236e-10
-0.00798879
2.71591e-10
-0.00798879
2.72804e-10
-0.00798879
2.73821e-10
-0.00798879
2.74613e-10
-0.00798879
2.75219e-10
-0.00798879
2.75664e-10
-0.00798879
2.75895e-10
-0.00798879
2.75818e-10
-0.00798879
2.75356e-10
-0.00798879
2.74492e-10
-0.00798879
2.73238e-10
-0.00798879
2.71603e-10
-0.00798879
2.69582e-10
-0.00798879
2.67188e-10
-0.00798879
2.64479e-10
-0.00798879
2.61534e-10
-0.00798879
2.58426e-10
-0.00798879
2.55183e-10
-0.00798879
2.51797e-10
-0.00798879
2.48239e-10
-0.00798879
2.44479e-10
-0.00798879
2.40491e-10
-0.00798879
2.3624e-10
-0.00798879
2.31687e-10
-0.00798879
2.26794e-10
-0.00798879
2.21544e-10
-0.00798879
2.15955e-10
-0.00798879
2.10081e-10
-0.00798879
2.03991e-10
-0.00798879
1.97749e-10
-0.00798879
1.91403e-10
-0.00798879
1.84988e-10
-0.00798879
1.7852e-10
-0.00798879
1.72008e-10
-0.00798879
1.65442e-10
-0.00798879
1.58799e-10
-0.00798879
1.52045e-10
-0.00798879
1.45136e-10
-0.00798879
1.38038e-10
-0.00798879
1.30732e-10
-0.00798879
1.23231e-10
-0.00798879
1.15573e-10
-0.00798879
1.07818e-10
-0.00798879
1.00028e-10
-0.00798879
9.22639e-11
-0.00798879
8.45889e-11
-0.00798879
7.70722e-11
-0.00798879
6.97747e-11
-0.00798879
6.27445e-11
-0.00798879
5.60531e-11
-0.00798879
4.98187e-11
-0.00798879
4.43227e-11
-0.00798879
4.02212e-11
-0.00798879
3.48889e-11
-0.00798879
4.13746e-11
-0.00798879
-0.00798879
-1.48036e-11
-0.00799175
-6.63678e-13
-0.00799174
1.03182e-11
-0.00799174
2.18864e-11
-0.00799174
3.25528e-11
-0.00799174
4.27108e-11
-0.00799174
5.25606e-11
-0.00799174
6.21259e-11
-0.00799174
7.14041e-11
-0.00799174
8.03315e-11
-0.00799174
8.89499e-11
-0.00799174
9.73103e-11
-0.00799174
1.05381e-10
-0.00799174
1.13256e-10
-0.00799174
1.20855e-10
-0.00799174
1.28357e-10
-0.00799174
1.35683e-10
-0.00799174
1.42946e-10
-0.00799174
1.50257e-10
-0.00799174
1.57377e-10
-0.00799174
1.64569e-10
-0.00799174
1.71637e-10
-0.00799174
1.78454e-10
-0.00799174
1.8531e-10
-0.00799174
1.91847e-10
-0.00799174
1.97987e-10
-0.00799174
2.04061e-10
-0.00799174
2.09854e-10
-0.00799174
2.15243e-10
-0.00799174
2.20508e-10
-0.00799174
2.25648e-10
-0.00799174
2.30532e-10
-0.00799174
2.35276e-10
-0.00799174
2.39926e-10
-0.00799174
2.44351e-10
-0.00799174
2.48536e-10
-0.00799174
2.52522e-10
-0.00799174
2.56202e-10
-0.00799174
2.59468e-10
-0.00799174
2.62372e-10
-0.00799174
2.64973e-10
-0.00799174
2.67205e-10
-0.00799174
2.6903e-10
-0.00799174
2.70552e-10
-0.00799174
2.71903e-10
-0.00799174
2.73096e-10
-0.00799174
2.74081e-10
-0.00799174
2.74861e-10
-0.00799174
2.75496e-10
-0.00799174
2.75997e-10
-0.00799174
2.76279e-10
-0.00799174
2.76223e-10
-0.00799174
2.75764e-10
-0.00799174
2.74906e-10
-0.00799174
2.73663e-10
-0.00799174
2.72025e-10
-0.00799174
2.6997e-10
-0.00799174
2.67519e-10
-0.00799174
2.64751e-10
-0.00799174
2.6177e-10
-0.00799174
2.5865e-10
-0.00799174
2.5541e-10
-0.00799174
2.52032e-10
-0.00799174
2.48485e-10
-0.00799174
2.44746e-10
-0.00799174
2.40792e-10
-0.00799174
2.3658e-10
-0.00799174
2.32053e-10
-0.00799174
2.27159e-10
-0.00799174
2.21881e-10
-0.00799174
2.16246e-10
-0.00799174
2.10323e-10
-0.00799174
2.04191e-10
-0.00799174
1.97917e-10
-0.00799174
1.91547e-10
-0.00799174
1.85111e-10
-0.00799174
1.78633e-10
-0.00799174
1.72121e-10
-0.00799174
1.65569e-10
-0.00799174
1.5895e-10
-0.00799174
1.52222e-10
-0.00799174
1.45334e-10
-0.00799174
1.38241e-10
-0.00799174
1.30919e-10
-0.00799174
1.2338e-10
-0.00799174
1.15671e-10
-0.00799174
1.07859e-10
-0.00799174
1.00008e-10
-0.00799174
9.21811e-11
-0.00799174
8.44481e-11
-0.00799174
7.68749e-11
-0.00799174
6.95082e-11
-0.00799174
6.23949e-11
-0.00799174
5.55922e-11
-0.00799174
4.91271e-11
-0.00799174
4.30558e-11
-0.00799174
3.76736e-11
-0.00799174
3.17235e-11
-0.00799174
3.00022e-11
-0.00799174
-0.00799174
-1.79507e-13
-0.00799653
5.00495e-12
-0.00799653
1.41356e-11
-0.00799653
2.4043e-11
-0.00799653
3.38781e-11
-0.00799653
4.3602e-11
-0.00799653
5.32218e-11
-0.00799653
6.26902e-11
-0.00799653
7.19634e-11
-0.00799653
8.09123e-11
-0.00799653
8.95575e-11
-0.00799653
9.78717e-11
-0.00799653
1.05886e-10
-0.00799653
1.13726e-10
-0.00799653
1.21219e-10
-0.00799652
1.28664e-10
-0.00799652
1.35976e-10
-0.00799652
1.4317e-10
-0.00799652
1.50542e-10
-0.00799652
1.57662e-10
-0.00799652
1.64835e-10
-0.00799652
1.7207e-10
-0.00799652
1.78956e-10
-0.00799652
1.85766e-10
-0.00799652
1.924e-10
-0.00799652
1.98637e-10
-0.00799652
2.04654e-10
-0.00799652
2.10389e-10
-0.00799652
2.15802e-10
-0.00799652
2.21073e-10
-0.00799652
2.26173e-10
-0.00799652
2.31041e-10
-0.00799652
2.35812e-10
-0.00799652
2.40511e-10
-0.00799652
2.44998e-10
-0.00799652
2.49237e-10
-0.00799652
2.53253e-10
-0.00799652
2.56972e-10
-0.00799652
2.60299e-10
-0.00799652
2.63228e-10
-0.00799652
2.6578e-10
-0.00799652
2.67939e-10
-0.00799652
2.6972e-10
-0.00799652
2.71216e-10
-0.00799652
2.72514e-10
-0.00799652
2.73638e-10
-0.00799652
2.74586e-10
-0.00799652
2.75391e-10
-0.00799652
2.76093e-10
-0.00799652
2.76665e-10
-0.00799652
2.76996e-10
-0.00799652
2.76975e-10
-0.00799652
2.7655e-10
-0.00799652
2.75722e-10
-0.00799652
2.74487e-10
-0.00799652
2.72812e-10
-0.00799652
2.70681e-10
-0.00799652
2.68141e-10
-0.00799652
2.65298e-10
-0.00799652
2.62268e-10
-0.00799652
2.59121e-10
-0.00799652
2.5587e-10
-0.00799652
2.52497e-10
-0.00799652
2.48978e-10
-0.00799652
2.45291e-10
-0.00799652
2.414e-10
-0.00799652
2.37243e-10
-0.00799652
2.32741e-10
-0.00799652
2.27834e-10
-0.00799652
2.22508e-10
-0.00799652
2.16805e-10
-0.00799652
2.10807e-10
-0.00799652
2.04602e-10
-0.00799652
1.98262e-10
-0.00799652
1.91837e-10
-0.00799652
1.85364e-10
-0.00799652
1.7887e-10
-0.00799652
1.72366e-10
-0.00799652
1.65842e-10
-0.00799652
1.5926e-10
-0.00799652
1.52567e-10
-0.00799652
1.45699e-10
-0.00799652
1.38604e-10
-0.00799652
1.31253e-10
-0.00799652
1.23653e-10
-0.00799652
1.15856e-10
-0.00799652
1.07939e-10
-0.00799652
9.99779e-11
-0.00799652
9.2037e-11
-0.00799652
8.41939e-11
-0.00799652
7.65133e-11
-0.00799652
6.90211e-11
-0.00799652
6.17431e-11
-0.00799652
5.47156e-11
-0.00799652
4.792e-11
-0.00799652
4.11926e-11
-0.00799652
3.41774e-11
-0.00799652
2.63024e-11
-0.00799652
1.53642e-11
-0.00799652
-0.00799652
3.64951e-12
-0.00800313
9.31798e-12
-0.00800313
1.71803e-11
-0.00800313
2.60552e-11
-0.00800313
3.53727e-11
-0.00800313
4.47691e-11
-0.00800313
5.41954e-11
-0.00800313
6.35109e-11
-0.00800313
7.27371e-11
-0.00800313
8.16666e-11
-0.00800313
9.0312e-11
-0.00800313
9.86591e-11
-0.00800313
1.06568e-10
-0.00800313
1.14361e-10
-0.00800313
1.21778e-10
-0.00800313
1.29119e-10
-0.00800313
1.36452e-10
-0.00800313
1.43553e-10
-0.00800313
1.50887e-10
-0.00800313
1.58163e-10
-0.00800313
1.65368e-10
-0.00800313
1.72607e-10
-0.00800313
1.79645e-10
-0.00800313
1.86574e-10
-0.00800313
1.93218e-10
-0.00800313
1.99461e-10
-0.00800313
2.05505e-10
-0.00800313
2.1124e-10
-0.00800313
2.16623e-10
-0.00800313
2.21861e-10
-0.00800313
2.2694e-10
-0.00800313
2.31818e-10
-0.00800313
2.36643e-10
-0.00800313
2.41404e-10
-0.00800313
2.45933e-10
-0.00800313
2.50227e-10
-0.00800313
2.54342e-10
-0.00800313
2.58152e-10
-0.00800313
2.61501e-10
-0.00800313
2.64399e-10
-0.00800313
2.66917e-10
-0.00800313
2.69045e-10
-0.00800313
2.70772e-10
-0.00800313
2.72176e-10
-0.00800313
2.73378e-10
-0.00800313
2.74443e-10
-0.00800313
2.75389e-10
-0.00800313
2.76239e-10
-0.00800313
2.77006e-10
-0.00800313
2.7764e-10
-0.00800313
2.78034e-10
-0.00800313
2.78079e-10
-0.00800313
2.77715e-10
-0.00800313
2.76919e-10
-0.00800313
2.75665e-10
-0.00800313
2.73923e-10
-0.00800313
2.71699e-10
-0.00800313
2.69063e-10
-0.00800313
2.66136e-10
-0.00800313
2.63037e-10
-0.00800313
2.5984e-10
-0.00800313
2.56567e-10
-0.00800313
2.53207e-10
-0.00800313
2.49739e-10
-0.00800313
2.46126e-10
-0.00800313
2.42309e-10
-0.00800313
2.38204e-10
-0.00800313
2.33718e-10
-0.00800313
2.28788e-10
-0.00800313
2.23404e-10
-0.00800313
2.17619e-10
-0.00800313
2.11524e-10
-0.00800313
2.05217e-10
-0.00800313
1.98781e-10
-0.00800313
1.92279e-10
-0.00800313
1.85759e-10
-0.00800313
1.7925e-10
-0.00800313
1.72759e-10
-0.00800313
1.66268e-10
-0.00800313
1.5973e-10
-0.00800313
1.53073e-10
-0.00800313
1.46218e-10
-0.00800313
1.39106e-10
-0.00800313
1.31708e-10
-0.00800313
1.24029e-10
-0.00800313
1.16115e-10
-0.00800313
1.08057e-10
-0.00800313
9.99524e-11
-0.00800313
9.18767e-11
-0.00800313
8.39008e-11
-0.00800313
7.60929e-11
-0.00800313
6.84735e-11
-0.00800313
6.10048e-11
-0.00800313
5.36616e-11
-0.00800313
4.64315e-11
-0.00800313
3.9186e-11
-0.00800313
3.14877e-11
-0.00800313
2.2585e-11
-0.00800313
1.19648e-11
-0.00800313
-0.00800313
5.66831e-12
-0.00801156
1.19413e-11
-0.00801156
1.947e-11
-0.00801156
2.77959e-11
-0.00801156
3.67287e-11
-0.00801156
4.59391e-11
-0.00801156
5.53043e-11
-0.00801156
6.45664e-11
-0.00801156
7.37298e-11
-0.00801156
8.26746e-11
-0.00801156
9.12237e-11
-0.00801156
9.95729e-11
-0.00801156
1.07404e-10
-0.00801156
1.15122e-10
-0.00801156
1.2254e-10
-0.00801156
1.29715e-10
-0.00801156
1.36989e-10
-0.00801156
1.44174e-10
-0.00801156
1.51461e-10
-0.00801156
1.58732e-10
-0.00801156
1.66079e-10
-0.00801156
1.7344e-10
-0.00801156
1.80552e-10
-0.00801156
1.87561e-10
-0.00801156
1.94271e-10
-0.00801156
2.00553e-10
-0.00801156
2.06612e-10
-0.00801156
2.12332e-10
-0.00801156
2.17672e-10
-0.00801156
2.22881e-10
-0.00801156
2.27977e-10
-0.00801156
2.32893e-10
-0.00801156
2.37742e-10
-0.00801156
2.4254e-10
-0.00801156
2.47161e-10
-0.00801156
2.5158e-10
-0.00801156
2.55788e-10
-0.00801156
2.59642e-10
-0.00801156
2.63008e-10
-0.00801156
2.65914e-10
-0.00801156
2.68416e-10
-0.00801156
2.70488e-10
-0.00801156
2.72116e-10
-0.00801156
2.73406e-10
-0.00801156
2.7452e-10
-0.00801156
2.75549e-10
-0.00801156
2.76507e-10
-0.00801156
2.77395e-10
-0.00801156
2.78214e-10
-0.00801156
2.7892e-10
-0.00801156
2.79403e-10
-0.00801156
2.7954e-10
-0.00801156
2.7924e-10
-0.00801156
2.78457e-10
-0.00801156
2.77162e-10
-0.00801156
2.75343e-10
-0.00801156
2.73023e-10
-0.00801156
2.70285e-10
-0.00801156
2.67256e-10
-0.00801156
2.64066e-10
-0.00801156
2.60805e-10
-0.00801156
2.57513e-10
-0.00801156
2.54182e-10
-0.00801156
2.50778e-10
-0.00801156
2.47245e-10
-0.00801156
2.435e-10
-0.00801156
2.39442e-10
-0.00801156
2.34966e-10
-0.00801156
2.30006e-10
-0.00801156
2.24555e-10
-0.00801156
2.18672e-10
-0.00801156
2.12457e-10
-0.00801156
2.06024e-10
-0.00801156
1.99472e-10
-0.00801156
1.92882e-10
-0.00801156
1.8631e-10
-0.00801156
1.79784e-10
-0.00801156
1.73306e-10
-0.00801156
1.66848e-10
-0.00801156
1.60353e-10
-0.00801156
1.53732e-10
-0.00801156
1.46888e-10
-0.00801156
1.39746e-10
-0.00801156
1.32277e-10
-0.00801156
1.24493e-10
-0.00801156
1.16441e-10
-0.00801156
1.08214e-10
-0.00801156
9.99341e-11
-0.00801156
9.17018e-11
-0.00801156
8.35839e-11
-0.00801156
7.56462e-11
-0.00801156
6.7919e-11
-0.00801156
6.03336e-11
-0.00801156
5.27742e-11
-0.00801156
4.51528e-11
-0.00801156
3.74184e-11
-0.00801156
2.93912e-11
-0.00801156
2.05206e-11
-0.00801156
1.05358e-11
-0.00801156
-0.00801156
6.6409e-12
-0.00802182
1.35224e-11
-0.00802182
2.11528e-11
-0.00802182
2.93551e-11
-0.00802182
3.80605e-11
-0.00802182
4.71069e-11
-0.00802182
5.6399e-11
-0.00802182
6.56911e-11
-0.00802182
7.48366e-11
-0.00802182
8.37995e-11
-0.00802182
9.23056e-11
-0.00802182
1.00617e-10
-0.00802182
1.08462e-10
-0.00802182
1.1599e-10
-0.00802182
1.2335e-10
-0.00802182
1.30545e-10
-0.00802182
1.37707e-10
-0.00802182
1.44853e-10
-0.00802182
1.52209e-10
-0.00802182
1.59545e-10
-0.00802182
1.66984e-10
-0.00802182
1.74458e-10
-0.00802182
1.81668e-10
-0.00802182
1.8877e-10
-0.00802182
1.95563e-10
-0.00802182
2.0189e-10
-0.00802182
2.0794e-10
-0.00802182
2.13627e-10
-0.00802182
2.1896e-10
-0.00802182
2.24184e-10
-0.00802182
2.29276e-10
-0.00802182
2.34188e-10
-0.00802182
2.39085e-10
-0.00802182
2.43984e-10
-0.00802182
2.4872e-10
-0.00802182
2.53236e-10
-0.00802182
2.57523e-10
-0.00802182
2.61439e-10
-0.00802182
2.64849e-10
-0.00802182
2.67768e-10
-0.00802182
2.70237e-10
-0.00802182
2.72222e-10
-0.00802182
2.73733e-10
-0.00802182
2.74917e-10
-0.00802182
2.75963e-10
-0.00802182
2.76963e-10
-0.00802182
2.77922e-10
-0.00802182
2.78838e-10
-0.00802182
2.79719e-10
-0.00802182
2.8052e-10
-0.00802182
2.81114e-10
-0.00802182
2.81343e-10
-0.00802182
2.81092e-10
-0.00802182
2.80306e-10
-0.00802182
2.78966e-10
-0.00802182
2.7707e-10
-0.00802182
2.74649e-10
-0.00802182
2.71793e-10
-0.00802182
2.68641e-10
-0.00802182
2.65347e-10
-0.00802182
2.62025e-10
-0.00802182
2.58723e-10
-0.00802182
2.5543e-10
-0.00802182
2.52095e-10
-0.00802182
2.48639e-10
-0.00802182
2.44961e-10
-0.00802182
2.40945e-10
-0.00802182
2.36475e-10
-0.00802182
2.31478e-10
-0.00802182
2.25946e-10
-0.00802182
2.19947e-10
-0.00802182
2.13594e-10
-0.00802182
2.07018e-10
-0.00802182
2.00339e-10
-0.00802182
1.93653e-10
-0.00802182
1.87023e-10
-0.00802182
1.80478e-10
-0.00802182
1.74012e-10
-0.00802182
1.67587e-10
-0.00802182
1.61129e-10
-0.00802182
1.54536e-10
-0.00802182
1.47697e-10
-0.00802182
1.40518e-10
-0.00802182
1.32959e-10
-0.00802182
1.25043e-10
-0.00802182
1.16833e-10
-0.00802182
1.08425e-10
-0.00802182
9.99533e-11
-0.00802182
9.15443e-11
-0.00802182
8.32754e-11
-0.00802182
7.51964e-11
-0.00802182
6.73425e-11
-0.00802182
5.9675e-11
-0.00802182
5.20394e-11
-0.00802182
4.42597e-11
-0.00802182
3.62249e-11
-0.00802182
2.79338e-11
-0.00802182
1.91848e-11
-0.00802182
9.72787e-12
-0.00802182
-0.00802182
7.23125e-12
-0.0080339
1.44623e-11
-0.0080339
2.22622e-11
-0.0080339
3.05394e-11
-0.0080339
3.92778e-11
-0.0080339
4.83236e-11
-0.0080339
5.75919e-11
-0.0080339
6.68942e-11
-0.0080339
7.6011e-11
-0.0080339
8.50018e-11
-0.0080339
9.35655e-11
-0.0080339
1.01732e-10
-0.0080339
1.09572e-10
-0.0080339
1.17087e-10
-0.0080339
1.24307e-10
-0.0080339
1.31442e-10
-0.0080339
1.38582e-10
-0.0080339
1.45714e-10
-0.0080339
1.53124e-10
-0.0080339
1.60546e-10
-0.0080339
1.68077e-10
-0.0080339
1.75662e-10
-0.0080339
1.83e-10
-0.0080339
1.90222e-10
-0.0080339
1.97075e-10
-0.0080339
2.03411e-10
-0.0080339
2.09476e-10
-0.0080339
2.1518e-10
-0.0080339
2.20503e-10
-0.0080339
2.25701e-10
-0.0080339
2.3079e-10
-0.0080339
2.35741e-10
-0.0080339
2.40717e-10
-0.0080339
2.45721e-10
-0.0080339
2.50561e-10
-0.0080339
2.55174e-10
-0.0080339
2.59553e-10
-0.0080339
2.63552e-10
-0.0080339
2.67016e-10
-0.0080339
2.69934e-10
-0.0080339
2.72342e-10
-0.0080339
2.74227e-10
-0.0080339
2.7563e-10
-0.0080339
2.76723e-10
-0.0080339
2.77703e-10
-0.0080339
2.78665e-10
-0.0080339
2.79618e-10
-0.0080339
2.80571e-10
-0.0080339
2.81534e-10
-0.0080339
2.82447e-10
-0.0080339
2.83152e-10
-0.0080339
2.83463e-10
-0.0080339
2.8325e-10
-0.0080339
2.82459e-10
-0.0080339
2.81075e-10
-0.0080339
2.79097e-10
-0.0080339
2.76561e-10
-0.0080339
2.73568e-10
-0.0080339
2.70282e-10
-0.0080339
2.66883e-10
-0.0080339
2.63506e-10
-0.0080339
2.60202e-10
-0.0080339
2.5695e-10
-0.0080339
2.53681e-10
-0.0080339
2.50298e-10
-0.0080339
2.46685e-10
-0.0080339
2.42707e-10
-0.0080339
2.38236e-10
-0.0080339
2.33191e-10
-0.0080339
2.27566e-10
-0.0080339
2.21435e-10
-0.0080339
2.14928e-10
-0.0080339
2.08196e-10
-0.0080339
2.01381e-10
-0.0080339
1.94594e-10
-0.0080339
1.87901e-10
-0.0080339
1.81333e-10
-0.0080339
1.7488e-10
-0.0080339
1.68488e-10
-0.0080339
1.62064e-10
-0.0080339
1.55488e-10
-0.0080339
1.48639e-10
-0.0080339
1.41409e-10
-0.0080339
1.33746e-10
-0.0080339
1.25675e-10
-0.0080339
1.17284e-10
-0.0080339
1.08687e-10
-0.0080339
1.00022e-10
-0.0080339
9.14359e-11
-0.0080339
8.30282e-11
-0.0080339
7.48256e-11
-0.0080339
6.68441e-11
-0.0080339
5.90613e-11
-0.0080339
5.13618e-11
-0.0080339
4.35609e-11
-0.0080339
3.54649e-11
-0.0080339
2.70526e-11
-0.0080339
1.83568e-11
-0.0080339
9.23458e-12
-0.0080339
-0.0080339
7.70963e-12
-0.00804781
1.52191e-11
-0.00804781
2.31121e-11
-0.00804781
3.14916e-11
-0.00804781
4.03163e-11
-0.00804781
4.94418e-11
-0.00804781
5.87384e-11
-0.00804781
6.8165e-11
-0.00804781
7.73369e-11
-0.00804781
8.62597e-11
-0.00804781
9.48591e-11
-0.00804781
1.03038e-10
-0.00804781
1.10776e-10
-0.00804781
1.18255e-10
-0.00804781
1.25407e-10
-0.00804781
1.32471e-10
-0.00804781
1.39601e-10
-0.00804781
1.46753e-10
-0.00804781
1.54208e-10
-0.00804781
1.61704e-10
-0.00804781
1.69359e-10
-0.00804781
1.77095e-10
-0.00804781
1.84551e-10
-0.00804781
1.91851e-10
-0.00804781
1.98771e-10
-0.00804781
2.05161e-10
-0.00804781
2.11251e-10
-0.00804781
2.16948e-10
-0.00804781
2.22249e-10
-0.00804781
2.27437e-10
-0.00804781
2.32548e-10
-0.00804781
2.37559e-10
-0.00804781
2.42622e-10
-0.00804781
2.47723e-10
-0.00804781
2.52667e-10
-0.00804781
2.57393e-10
-0.00804781
2.61887e-10
-0.00804781
2.65978e-10
-0.00804781
2.6948e-10
-0.00804781
2.72376e-10
-0.00804781
2.74716e-10
-0.00804781
2.76509e-10
-0.00804781
2.77815e-10
-0.00804781
2.78815e-10
-0.00804781
2.79721e-10
-0.00804781
2.8064e-10
-0.00804781
2.81596e-10
-0.00804781
2.82605e-10
-0.00804781
2.83665e-10
-0.00804781
2.84691e-10
-0.00804781
2.85499e-10
-0.00804781
2.85884e-10
-0.00804781
2.85709e-10
-0.00804781
2.84914e-10
-0.00804781
2.83481e-10
-0.00804781
2.8141e-10
-0.00804781
2.78742e-10
-0.00804781
2.75599e-10
-0.00804781
2.72176e-10
-0.00804781
2.68678e-10
-0.00804781
2.65252e-10
-0.00804781
2.61949e-10
-0.00804781
2.58735e-10
-0.00804781
2.55529e-10
-0.00804781
2.52218e-10
-0.00804781
2.48667e-10
-0.00804781
2.44722e-10
-0.00804781
2.40242e-10
-0.00804781
2.35137e-10
-0.00804781
2.29403e-10
-0.00804781
2.23126e-10
-0.00804781
2.16453e-10
-0.00804781
2.09557e-10
-0.00804781
2.026e-10
-0.00804781
1.95705e-10
-0.00804781
1.88947e-10
-0.00804781
1.82352e-10
-0.00804781
1.75908e-10
-0.00804781
1.69547e-10
-0.00804781
1.63156e-10
-0.00804781
1.56592e-10
-0.00804781
1.49717e-10
-0.00804781
1.4242e-10
-0.00804781
1.34639e-10
-0.00804781
1.26396e-10
-0.00804781
1.17798e-10
-0.00804781
1.08995e-10
-0.00804781
1.00134e-10
-0.00804781
9.13713e-11
-0.00804781
8.28299e-11
-0.00804781
7.45427e-11
-0.00804781
6.64837e-11
-0.00804781
5.86101e-11
-0.00804781
5.08246e-11
-0.00804781
4.29957e-11
-0.00804781
3.49325e-11
-0.00804781
2.65283e-11
-0.00804781
1.78773e-11
-0.00804781
8.94255e-12
-0.00804781
-0.00804781
7.98694e-12
-0.00806355
1.57938e-11
-0.00806355
2.38999e-11
-0.00806355
3.23553e-11
-0.00806355
4.12322e-11
-0.00806355
5.05206e-11
-0.00806355
5.98986e-11
-0.00806355
6.93638e-11
-0.00806355
7.86649e-11
-0.00806355
8.76518e-11
-0.00806355
9.62216e-11
-0.00806355
1.0442e-10
-0.00806355
1.12097e-10
-0.00806355
1.19506e-10
-0.00806355
1.2662e-10
-0.00806355
1.33653e-10
-0.00806355
1.40767e-10
-0.00806355
1.47926e-10
-0.00806355
1.55449e-10
-0.00806355
1.63066e-10
-0.00806355
1.70851e-10
-0.00806355
1.78706e-10
-0.00806355
1.86276e-10
-0.00806355
1.93682e-10
-0.00806355
2.00684e-10
-0.00806355
2.07122e-10
-0.00806355
2.13229e-10
-0.00806355
2.18915e-10
-0.00806355
2.24201e-10
-0.00806355
2.29401e-10
-0.00806355
2.34555e-10
-0.00806355
2.39629e-10
-0.00806355
2.44773e-10
-0.00806355
2.49976e-10
-0.00806355
2.55043e-10
-0.00806355
2.59903e-10
-0.00806355
2.64519e-10
-0.00806355
2.68689e-10
-0.00806355
2.72215e-10
-0.00806355
2.75085e-10
-0.00806355
2.77363e-10
-0.00806355
2.7907e-10
-0.00806355
2.80275e-10
-0.00806355
2.81176e-10
-0.00806355
2.82003e-10
-0.00806355
2.82888e-10
-0.00806355
2.83865e-10
-0.00806355
2.84942e-10
-0.00806355
2.86101e-10
-0.00806355
2.87236e-10
-0.00806355
2.88142e-10
-0.00806355
2.88602e-10
-0.00806355
2.88466e-10
-0.00806355
2.87664e-10
-0.00806355
2.86172e-10
-0.00806355
2.83992e-10
-0.00806355
2.81179e-10
-0.00806355
2.77882e-10
-0.00806355
2.74324e-10
-0.00806355
2.70732e-10
-0.00806355
2.67259e-10
-0.00806355
2.63956e-10
-0.00806355
2.60779e-10
-0.00806355
2.57635e-10
-0.00806355
2.54395e-10
-0.00806355
2.50902e-10
-0.00806355
2.46984e-10
-0.00806355
2.42483e-10
-0.00806355
2.37306e-10
-0.00806355
2.3145e-10
-0.00806355
2.25014e-10
-0.00806355
2.18164e-10
-0.00806355
2.11096e-10
-0.00806355
2.03992e-10
-0.00806355
1.96988e-10
-0.00806355
1.90161e-10
-0.00806355
1.83539e-10
-0.00806355
1.771e-10
-0.00806355
1.70764e-10
-0.00806355
1.644e-10
-0.00806355
1.57842e-10
-0.00806355
1.5093e-10
-0.00806355
1.43546e-10
-0.00806355
1.35631e-10
-0.00806355
1.27207e-10
-0.00806355
1.18391e-10
-0.00806355
1.09364e-10
-0.00806355
1.00303e-10
-0.00806355
9.13653e-11
-0.00806355
8.26809e-11
-0.00806355
7.43148e-11
-0.00806355
6.62173e-11
-0.00806355
5.83142e-11
-0.00806355
5.04824e-11
-0.00806355
4.26113e-11
-0.00806355
3.45681e-11
-0.00806355
2.6209e-11
-0.00806355
1.76075e-11
-0.00806355
8.77381e-12
-0.00806355
-0.00806355
8.15933e-12
-0.00808112
1.61749e-11
-0.00808111
2.44922e-11
-0.00808111
3.31798e-11
-0.00808111
4.21579e-11
-0.00808111
5.15299e-11
-0.00808111
6.10687e-11
-0.00808111
7.06022e-11
-0.00808111
8.0001e-11
-0.00808111
8.90747e-11
-0.00808111
9.76742e-11
-0.00808111
1.05846e-10
-0.00808111
1.13505e-10
-0.00808111
1.20884e-10
-0.00808111
1.27955e-10
-0.00808111
1.34943e-10
-0.00808111
1.42055e-10
-0.00808111
1.49268e-10
-0.00808111
1.56879e-10
-0.00808111
1.64602e-10
-0.00808111
1.72512e-10
-0.00808111
1.80499e-10
-0.00808111
1.88193e-10
-0.00808111
1.95715e-10
-0.00808111
2.02802e-10
-0.00808111
2.09278e-10
-0.00808111
2.15392e-10
-0.00808111
2.21078e-10
-0.00808111
2.26372e-10
-0.00808111
2.31598e-10
-0.00808111
2.36796e-10
-0.00808111
2.41929e-10
-0.00808111
2.47161e-10
-0.00808111
2.52486e-10
-0.00808111
2.57696e-10
-0.00808111
2.62696e-10
-0.00808111
2.67425e-10
-0.00808111
2.71665e-10
-0.00808111
2.75213e-10
-0.00808111
2.78061e-10
-0.00808111
2.80281e-10
-0.00808111
2.81898e-10
-0.00808111
2.82994e-10
-0.00808111
2.83791e-10
-0.00808111
2.8455e-10
-0.00808111
2.85416e-10
-0.00808111
2.86424e-10
-0.00808111
2.87573e-10
-0.00808111
2.88829e-10
-0.00808111
2.90071e-10
-0.00808111
2.91078e-10
-0.00808111
2.91616e-10
-0.00808111
2.91517e-10
-0.00808111
2.907e-10
-0.00808111
2.89134e-10
-0.00808111
2.86831e-10
-0.00808111
2.83866e-10
-0.00808111
2.80415e-10
-0.00808111
2.76725e-10
-0.00808111
2.7304e-10
-0.00808111
2.69522e-10
-0.00808111
2.66217e-10
-0.00808111
2.63077e-10
-0.00808111
2.59995e-10
-0.00808111
2.56824e-10
-0.00808111
2.53385e-10
-0.00808111
2.49485e-10
-0.00808111
2.44954e-10
-0.00808111
2.39692e-10
-0.00808111
2.33702e-10
-0.00808111
2.27095e-10
-0.00808111
2.20059e-10
-0.00808111
2.12813e-10
-0.00808111
2.05556e-10
-0.00808111
1.98436e-10
-0.00808111
1.9154e-10
-0.00808111
1.84894e-10
-0.00808111
1.7846e-10
-0.00808111
1.72144e-10
-0.00808111
1.65798e-10
-0.00808111
1.59238e-10
-0.00808111
1.52278e-10
-0.00808111
1.44788e-10
-0.00808111
1.36718e-10
-0.00808111
1.28102e-10
-0.00808111
1.19062e-10
-0.00808111
1.09801e-10
-0.00808111
1.00538e-10
-0.00808111
9.1432e-11
-0.00808111
8.26134e-11
-0.00808111
7.41557e-11
-0.00808111
6.60232e-11
-0.00808111
5.81164e-11
-0.00808111
5.02901e-11
-0.00808111
4.24013e-11
-0.00808111
3.43614e-11
-0.00808111
2.60336e-11
-0.00808111
1.74657e-11
-0.00808111
8.68024e-12
-0.00808111
-0.00808111
8.30968e-12
-0.00810051
1.65527e-11
-0.00810051
2.49946e-11
-0.00810051
3.38562e-11
-0.00810051
4.3039e-11
-0.00810051
5.25201e-11
-0.00810051
6.22206e-11
-0.00810051
7.18875e-11
-0.00810051
8.13953e-11
-0.00810051
9.05155e-11
-0.00810051
9.91637e-11
-0.00810051
1.07359e-10
-0.00810051
1.15011e-10
-0.00810051
1.22347e-10
-0.00810051
1.29379e-10
-0.00810051
1.3636e-10
-0.00810051
1.43496e-10
-0.00810051
1.50766e-10
-0.00810051
1.58471e-10
-0.00810051
1.66304e-10
-0.00810051
1.74343e-10
-0.00810051
1.82476e-10
-0.00810051
1.90308e-10
-0.00810051
1.97942e-10
-0.00810051
2.051e-10
-0.00810051
2.11612e-10
-0.00810051
2.17746e-10
-0.00810051
2.23448e-10
-0.00810051
2.28759e-10
-0.00810051
2.34012e-10
-0.00810051
2.39251e-10
-0.00810051
2.44453e-10
-0.00810051
2.49793e-10
-0.00810051
2.55258e-10
-0.00810051
2.60617e-10
-0.00810051
2.65752e-10
-0.00810051
2.70588e-10
-0.00810051
2.74899e-10
-0.00810051
2.78474e-10
-0.00810051
2.81302e-10
-0.00810051
2.83457e-10
-0.00810051
2.84975e-10
-0.00810051
2.85959e-10
-0.00810051
2.86661e-10
-0.00810051
2.87363e-10
-0.00810051
2.88222e-10
-0.00810051
2.89266e-10
-0.00810051
2.90486e-10
-0.00810051
2.9184e-10
-0.00810051
2.93193e-10
-0.00810051
2.94306e-10
-0.00810051
2.94922e-10
-0.00810051
2.94854e-10
-0.00810051
2.94007e-10
-0.00810051
2.92356e-10
-0.00810051
2.89921e-10
-0.00810051
2.86801e-10
-0.00810051
2.83197e-10
-0.00810051
2.79376e-10
-0.00810051
2.75599e-10
-0.00810051
2.72033e-10
-0.00810051
2.68727e-10
-0.00810051
2.65625e-10
-0.00810051
2.62606e-10
-0.00810051
2.59502e-10
-0.00810051
2.56111e-10
-0.00810051
2.52219e-10
-0.00810051
2.47646e-10
-0.00810051
2.42288e-10
-0.00810051
2.36152e-10
-0.00810051
2.29365e-10
-0.00810051
2.22136e-10
-0.00810051
2.14706e-10
-0.00810051
2.0729e-10
-0.00810051
2.00051e-10
-0.00810051
1.93082e-10
-0.00810051
1.86409e-10
-0.00810051
1.79983e-10
-0.00810051
1.73686e-10
-0.0081005
1.67352e-10
-0.0081005
1.60778e-10
-0.0081005
1.5376e-10
-0.0081005
1.46151e-10
-0.0081005
1.37904e-10
-0.0081005
1.29077e-10
-0.0081005
1.19807e-10
-0.0081005
1.1031e-10
-0.0081005
1.00833e-10
-0.0081005
9.15645e-11
-0.0081005
8.26246e-11
-0.0081005
7.40858e-11
-0.0081005
6.59141e-11
-0.0081005
5.80031e-11
-0.0081005
5.01977e-11
-0.0081005
4.23187e-11
-0.0081005
3.42823e-11
-0.0081005
2.59674e-11
-0.00810051
1.74115e-11
-0.00810051
8.636e-12
-0.00810051
-0.00810051
8.45349e-12
-0.00812173
1.68935e-11
-0.00812173
2.5511e-11
-0.00812173
3.44787e-11
-0.00812173
4.38411e-11
-0.00812173
5.35035e-11
-0.00812173
6.33694e-11
-0.00812173
7.31848e-11
-0.00812173
8.27887e-11
-0.00812173
9.20264e-11
-0.00812173
1.00717e-10
-0.00812173
1.08936e-10
-0.00812173
1.16581e-10
-0.00812173
1.23899e-10
-0.00812173
1.30913e-10
-0.00812173
1.37905e-10
-0.00812173
1.45082e-10
-0.00812173
1.52413e-10
-0.00812173
1.6021e-10
-0.00812173
1.68165e-10
-0.00812173
1.76352e-10
-0.00812173
1.84639e-10
-0.00812173
1.92605e-10
-0.00812173
2.00342e-10
-0.00812173
2.07571e-10
-0.00812173
2.14128e-10
-0.00812173
2.20297e-10
-0.00812173
2.26021e-10
-0.00812173
2.31348e-10
-0.00812173
2.36626e-10
-0.00812173
2.41917e-10
-0.00812173
2.47207e-10
-0.00812173
2.52671e-10
-0.00812173
2.58283e-10
-0.00812173
2.63788e-10
-0.00812173
2.69056e-10
-0.00812173
2.74004e-10
-0.00812173
2.78391e-10
-0.00812173
2.81994e-10
-0.00812173
2.84796e-10
-0.00812173
2.86877e-10
-0.00812173
2.88292e-10
-0.00812173
2.89169e-10
-0.00812173
2.89787e-10
-0.00812173
2.90443e-10
-0.00812173
2.91297e-10
-0.00812173
2.92378e-10
-0.00812173
2.93672e-10
-0.00812173
2.95129e-10
-0.00812173
2.966e-10
-0.00812173
2.97823e-10
-0.00812173
2.98512e-10
-0.00812173
2.98463e-10
-0.00812173
2.97576e-10
-0.00812173
2.95829e-10
-0.00812173
2.93258e-10
-0.00812173
2.89982e-10
-0.00812173
2.86223e-10
-0.00812173
2.82271e-10
-0.00812173
2.784e-10
-0.00812173
2.74787e-10
-0.00812173
2.71481e-10
-0.00812173
2.68419e-10
-0.00812173
2.65463e-10
-0.00812173
2.62423e-10
-0.00812173
2.59073e-10
-0.00812173
2.55182e-10
-0.00812173
2.50556e-10
-0.00812173
2.45089e-10
-0.00812173
2.38797e-10
-0.00812173
2.3182e-10
-0.00812173
2.24391e-10
-0.00812173
2.16771e-10
-0.00812173
2.09195e-10
-0.00812173
2.01834e-10
-0.00812173
1.9479e-10
-0.00812173
1.88087e-10
-0.00812173
1.81665e-10
-0.00812173
1.75387e-10
-0.00812173
1.6906e-10
-0.00812173
1.6246e-10
-0.00812173
1.55373e-10
-0.00812173
1.47636e-10
-0.00812173
1.39199e-10
-0.00812173
1.3014e-10
-0.00812173
1.20629e-10
-0.00812173
1.10897e-10
-0.00812173
1.01197e-10
-0.00812173
9.17591e-11
-0.00812173
8.27008e-11
-0.00812173
7.40909e-11
-0.00812173
6.58895e-11
-0.00812173
5.79752e-11
-0.00812173
5.01917e-11
-0.00812173
4.23301e-11
-0.00812173
3.42975e-11
-0.00812173
2.59827e-11
-0.00812173
1.74203e-11
-0.00812173
8.62589e-12
-0.00812173
-0.00812173
8.60188e-12
-0.00814478
1.71882e-11
-0.00814478
2.59813e-11
-0.00814478
3.51153e-11
-0.00814478
4.46416e-11
-0.00814478
5.44774e-11
-0.00814478
6.44949e-11
-0.00814478
7.45036e-11
-0.00814478
8.42179e-11
-0.00814478
9.35697e-11
-0.00814478
1.02329e-10
-0.00814478
1.10578e-10
-0.00814478
1.18221e-10
-0.00814478
1.25539e-10
-0.00814478
1.32564e-10
-0.00814478
1.39579e-10
-0.00814478
1.46797e-10
-0.00814478
1.54195e-10
-0.00814478
1.621e-10
-0.00814478
1.70194e-10
-0.00814478
1.78536e-10
-0.00814478
1.86975e-10
-0.00814478
1.95067e-10
-0.00814478
2.02909e-10
-0.00814478
2.10219e-10
-0.00814478
2.16833e-10
-0.00814478
2.23039e-10
-0.00814478
2.28783e-10
-0.00814478
2.34125e-10
-0.00814478
2.39439e-10