/*--------------------------------*- C++ -*----------------------------------*\
| =========                 |                                                 |
| \\      /  F ield         | OpenFOAM: The Open Source CFD Toolbox           |
|  \\    /   O peration     | Version:  2.3.x                                 |
|   \\  /    A nd           | Web:      www.OpenFOAM.org                      |
|    \\/     M anipulation  |                                                 |
\*---------------------------------------------------------------------------*/
FoamFile
{
    version     2.0;
    format      ascii;
    class       volVectorField;
    location    "0.06";
    object      U;
}
// * * * * * * * * * * * * * * * * * * * * * * * * * * * * * * * * * * * * * //

dimensions      [0 1 -1 0 0 0 0];

internalField   nonuniform List<vector> 
50000
(
(-1.37985e-11 -0.0078832 0)
(-1.71705e-11 -0.0078832 0)
(6.18804e-13 -0.0078832 0)
(1.43797e-11 -0.0078832 0)
(2.60586e-11 -0.0078832 0)
(3.66697e-11 -0.0078832 0)
(4.66926e-11 -0.0078832 0)
(5.63234e-11 -0.0078832 0)
(6.56351e-11 -0.0078832 0)
(7.46235e-11 -0.0078832 0)
(8.32961e-11 -0.0078832 0)
(9.16976e-11 -0.0078832 0)
(9.98197e-11 -0.0078832 0)
(1.07694e-10 -0.0078832 0)
(1.15353e-10 -0.0078832 0)
(1.22824e-10 -0.0078832 0)
(1.30152e-10 -0.0078832 0)
(1.37387e-10 -0.0078832 0)
(1.44576e-10 -0.0078832 0)
(1.51687e-10 -0.0078832 0)
(1.58746e-10 -0.0078832 0)
(1.65742e-10 -0.0078832 0)
(1.72596e-10 -0.0078832 0)
(1.79324e-10 -0.0078832 0)
(1.85852e-10 -0.0078832 0)
(1.92128e-10 -0.0078832 0)
(1.98202e-10 -0.0078832 0)
(2.03992e-10 -0.0078832 0)
(2.0948e-10 -0.0078832 0)
(2.14818e-10 -0.0078832 0)
(2.19979e-10 -0.0078832 0)
(2.24858e-10 -0.0078832 0)
(2.29587e-10 -0.0078832 0)
(2.34271e-10 -0.0078832 0)
(2.38753e-10 -0.0078832 0)
(2.42932e-10 -0.0078832 0)
(2.46917e-10 -0.0078832 0)
(2.50721e-10 -0.0078832 0)
(2.54165e-10 -0.0078832 0)
(2.57178e-10 -0.0078832 0)
(2.59862e-10 -0.0078832 0)
(2.6227e-10 -0.0078832 0)
(2.64325e-10 -0.0078832 0)
(2.66007e-10 -0.0078832 0)
(2.67422e-10 -0.0078832 0)
(2.68676e-10 -0.0078832 0)
(2.69773e-10 -0.0078832 0)
(2.70671e-10 -0.0078832 0)
(2.71366e-10 -0.0078832 0)
(2.71889e-10 -0.0078832 0)
(2.72231e-10 -0.0078832 0)
(2.72323e-10 -0.0078832 0)
(2.72074e-10 -0.0078832 0)
(2.71428e-10 -0.0078832 0)
(2.70382e-10 -0.0078832 0)
(2.6895e-10 -0.0078832 0)
(2.6714e-10 -0.0078832 0)
(2.64953e-10 -0.0078832 0)
(2.62422e-10 -0.0078832 0)
(2.59615e-10 -0.0078832 0)
(2.56614e-10 -0.0078832 0)
(2.53474e-10 -0.0078832 0)
(2.50206e-10 -0.0078832 0)
(2.46789e-10 -0.0078832 0)
(2.43188e-10 -0.0078832 0)
(2.39374e-10 -0.0078832 0)
(2.35316e-10 -0.0078832 0)
(2.3098e-10 -0.0078832 0)
(2.26324e-10 -0.0078832 0)
(2.21319e-10 -0.0078832 0)
(2.15964e-10 -0.0078832 0)
(2.10294e-10 -0.0078832 0)
(2.04373e-10 -0.0078832 0)
(1.98272e-10 -0.0078832 0)
(1.92048e-10 -0.0078832 0)
(1.85744e-10 -0.0078832 0)
(1.79384e-10 -0.0078832 0)
(1.7298e-10 -0.0078832 0)
(1.66532e-10 -0.0078832 0)
(1.60023e-10 -0.0078832 0)
(1.53421e-10 -0.0078832 0)
(1.46688e-10 -0.0078832 0)
(1.39783e-10 -0.0078832 0)
(1.32676e-10 -0.0078832 0)
(1.25363e-10 -0.0078832 0)
(1.17872e-10 -0.0078832 0)
(1.10251e-10 -0.0078832 0)
(1.02564e-10 -0.0078832 0)
(9.48727e-11 -0.0078832 0)
(8.72375e-11 -0.0078832 0)
(7.97254e-11 -0.0078832 0)
(7.24007e-11 -0.0078832 0)
(6.53163e-11 -0.0078832 0)
(5.85272e-11 -0.0078832 0)
(5.21081e-11 -0.0078832 0)
(4.62042e-11 -0.0078832 0)
(4.1238e-11 -0.0078832 0)
(3.83368e-11 -0.0078832 0)
(3.99994e-11 -0.0078832 0)
(2.13015e-11 -0.0078832 0)
(-8.83832e-12 -0.00788499 0)
(-1.00588e-11 -0.00788499 0)
(4.0096e-12 -0.00788499 0)
(1.61598e-11 -0.00788499 0)
(2.70352e-11 -0.00788499 0)
(3.724e-11 -0.00788499 0)
(4.70874e-11 -0.00788499 0)
(5.66632e-11 -0.00788499 0)
(6.59615e-11 -0.00788499 0)
(7.49433e-11 -0.00788499 0)
(8.3601e-11 -0.00788499 0)
(9.19805e-11 -0.00788499 0)
(1.00085e-10 -0.00788499 0)
(1.07943e-10 -0.00788499 0)
(1.15565e-10 -0.00788499 0)
(1.23002e-10 -0.00788499 0)
(1.30307e-10 -0.00788499 0)
(1.375e-10 -0.00788499 0)
(1.44689e-10 -0.00788499 0)
(1.5181e-10 -0.00788499 0)
(1.58879e-10 -0.00788499 0)
(1.65923e-10 -0.00788499 0)
(1.72786e-10 -0.00788499 0)
(1.79548e-10 -0.00788499 0)
(1.86165e-10 -0.00788499 0)
(1.92425e-10 -0.00788499 0)
(1.98452e-10 -0.00788499 0)
(2.04306e-10 -0.00788499 0)
(2.0982e-10 -0.00788499 0)
(2.15065e-10 -0.00788499 0)
(2.20191e-10 -0.00788499 0)
(2.25137e-10 -0.00788499 0)
(2.29887e-10 -0.00788499 0)
(2.34519e-10 -0.00788499 0)
(2.39008e-10 -0.00788499 0)
(2.43274e-10 -0.00788499 0)
(2.47314e-10 -0.00788499 0)
(2.51102e-10 -0.00788499 0)
(2.54541e-10 -0.00788499 0)
(2.57594e-10 -0.00788499 0)
(2.60306e-10 -0.00788499 0)
(2.62681e-10 -0.00788499 0)
(2.64677e-10 -0.00788499 0)
(2.66321e-10 -0.00788499 0)
(2.67723e-10 -0.00788499 0)
(2.68963e-10 -0.00788499 0)
(2.70034e-10 -0.00788499 0)
(2.70911e-10 -0.00788499 0)
(2.71615e-10 -0.00788499 0)
(2.72179e-10 -0.00788499 0)
(2.72576e-10 -0.00788499 0)
(2.72706e-10 -0.00788499 0)
(2.72472e-10 -0.00788499 0)
(2.71831e-10 -0.00788499 0)
(2.70791e-10 -0.00788499 0)
(2.69363e-10 -0.00788499 0)
(2.67535e-10 -0.00788499 0)
(2.65303e-10 -0.00788499 0)
(2.62712e-10 -0.00788499 0)
(2.59856e-10 -0.00788499 0)
(2.56829e-10 -0.00788499 0)
(2.53684e-10 -0.00788499 0)
(2.50424e-10 -0.00788499 0)
(2.47017e-10 -0.00788499 0)
(2.43434e-10 -0.00788499 0)
(2.39648e-10 -0.00788499 0)
(2.35627e-10 -0.00788499 0)
(2.31324e-10 -0.00788499 0)
(2.26683e-10 -0.00788499 0)
(2.21664e-10 -0.00788499 0)
(2.16272e-10 -0.00788499 0)
(2.10553e-10 -0.00788499 0)
(2.04585e-10 -0.00788499 0)
(1.98446e-10 -0.00788499 0)
(1.92193e-10 -0.00788499 0)
(1.85867e-10 -0.00788499 0)
(1.79492e-10 -0.00788499 0)
(1.73084e-10 -0.00788499 0)
(1.66644e-10 -0.00788499 0)
(1.60154e-10 -0.00788499 0)
(1.5358e-10 -0.00788499 0)
(1.46871e-10 -0.00788499 0)
(1.3998e-10 -0.00788499 0)
(1.32869e-10 -0.00788499 0)
(1.2553e-10 -0.00788499 0)
(1.17993e-10 -0.00788499 0)
(1.10318e-10 -0.00788499 0)
(1.02572e-10 -0.00788499 0)
(9.48188e-11 -0.00788499 0)
(8.7124e-11 -0.00788499 0)
(7.95563e-11 -0.00788499 0)
(7.21722e-11 -0.00788499 0)
(6.50172e-11 -0.00788499 0)
(5.81427e-11 -0.00788499 0)
(5.15837e-11 -0.00788499 0)
(4.53463e-11 -0.00788499 0)
(3.95623e-11 -0.00788499 0)
(3.48906e-11 -0.00788499 0)
(3.27129e-11 -0.00788499 0)
(1.6249e-11 -0.00788499 0)
(-1.27065e-12 -0.00788858 0)
(8.84141e-13 -0.00788858 0)
(9.07967e-12 -0.00788858 0)
(1.87954e-11 -0.00788858 0)
(2.86043e-11 -0.00788858 0)
(3.82622e-11 -0.00788858 0)
(4.78133e-11 -0.00788858 0)
(5.72462e-11 -0.00788858 0)
(6.65059e-11 -0.00788858 0)
(7.55044e-11 -0.00788858 0)
(8.41881e-11 -0.00788858 0)
(9.25581e-11 -0.00788858 0)
(1.00612e-10 -0.00788858 0)
(1.08423e-10 -0.00788858 0)
(1.15974e-10 -0.00788858 0)
(1.23329e-10 -0.00788858 0)
(1.30595e-10 -0.00788858 0)
(1.37744e-10 -0.00788858 0)
(1.4493e-10 -0.00788858 0)
(1.52081e-10 -0.00788858 0)
(1.59139e-10 -0.00788858 0)
(1.66263e-10 -0.00788858 0)
(1.73247e-10 -0.00788858 0)
(1.80015e-10 -0.00788858 0)
(1.86661e-10 -0.00788858 0)
(1.93022e-10 -0.00788858 0)
(1.99064e-10 -0.00788858 0)
(2.04859e-10 -0.00788858 0)
(2.10356e-10 -0.00788858 0)
(2.15614e-10 -0.00788858 0)
(2.20719e-10 -0.00788858 0)
(2.25636e-10 -0.00788858 0)
(2.30391e-10 -0.00788858 0)
(2.35063e-10 -0.00788858 0)
(2.39607e-10 -0.00788858 0)
(2.43931e-10 -0.00788858 0)
(2.48015e-10 -0.00788858 0)
(2.51839e-10 -0.00788858 0)
(2.55329e-10 -0.00788858 0)
(2.58425e-10 -0.00788858 0)
(2.61125e-10 -0.00788858 0)
(2.63439e-10 -0.00788858 0)
(2.65375e-10 -0.00788858 0)
(2.66981e-10 -0.00788858 0)
(2.68341e-10 -0.00788858 0)
(2.69519e-10 -0.00788858 0)
(2.70537e-10 -0.00788858 0)
(2.71407e-10 -0.00788858 0)
(2.72157e-10 -0.00788858 0)
(2.72792e-10 -0.00788858 0)
(2.73252e-10 -0.00788858 0)
(2.73428e-10 -0.00788858 0)
(2.73229e-10 -0.00788858 0)
(2.7262e-10 -0.00788858 0)
(2.71599e-10 -0.00788858 0)
(2.70156e-10 -0.00788858 0)
(2.68272e-10 -0.00788858 0)
(2.65956e-10 -0.00788858 0)
(2.63281e-10 -0.00788858 0)
(2.60359e-10 -0.00788858 0)
(2.57292e-10 -0.00788858 0)
(2.54129e-10 -0.00788858 0)
(2.50867e-10 -0.00788858 0)
(2.4748e-10 -0.00788858 0)
(2.43939e-10 -0.00788858 0)
(2.40211e-10 -0.00788858 0)
(2.36251e-10 -0.00788858 0)
(2.31989e-10 -0.00788858 0)
(2.27356e-10 -0.00788858 0)
(2.22308e-10 -0.00788858 0)
(2.16857e-10 -0.00788858 0)
(2.11065e-10 -0.00788858 0)
(2.05021e-10 -0.00788858 0)
(1.9881e-10 -0.00788858 0)
(1.92495e-10 -0.00788858 0)
(1.86123e-10 -0.00788858 0)
(1.79723e-10 -0.00788858 0)
(1.73313e-10 -0.00788858 0)
(1.66893e-10 -0.00788858 0)
(1.60437e-10 -0.00788858 0)
(1.53901e-10 -0.00788858 0)
(1.47222e-10 -0.00788858 0)
(1.40342e-10 -0.00788858 0)
(1.33216e-10 -0.00788858 0)
(1.25834e-10 -0.00788858 0)
(1.18222e-10 -0.00788858 0)
(1.10449e-10 -0.00788858 0)
(1.02594e-10 -0.00788858 0)
(9.47284e-11 -0.00788858 0)
(8.69232e-11 -0.00788858 0)
(7.92505e-11 -0.00788858 0)
(7.17568e-11 -0.00788858 0)
(6.44659e-11 -0.00788858 0)
(5.74108e-11 -0.00788858 0)
(5.06093e-11 -0.00788858 0)
(4.39718e-11 -0.00788858 0)
(3.72452e-11 -0.00788858 0)
(3.01232e-11 -0.00788858 0)
(2.18964e-11 -0.00788858 0)
(8.67972e-12 -0.00788858 0)
(1.40808e-12 -0.00789398 0)
(5.7521e-12 -0.00789398 0)
(1.27181e-11 -0.00789398 0)
(2.11845e-11 -0.00789398 0)
(3.02513e-11 -0.00789398 0)
(3.9522e-11 -0.00789398 0)
(4.88354e-11 -0.00789398 0)
(5.81092e-11 -0.00789398 0)
(6.72808e-11 -0.00789398 0)
(7.6256e-11 -0.00789398 0)
(8.49367e-11 -0.00789398 0)
(9.33206e-11 -0.00789398 0)
(1.01337e-10 -0.00789398 0)
(1.09073e-10 -0.00789398 0)
(1.1656e-10 -0.00789398 0)
(1.23823e-10 -0.00789398 0)
(1.31048e-10 -0.00789398 0)
(1.38157e-10 -0.00789398 0)
(1.45273e-10 -0.00789398 0)
(1.52488e-10 -0.00789398 0)
(1.5964e-10 -0.00789398 0)
(1.6678e-10 -0.00789398 0)
(1.73848e-10 -0.00789398 0)
(1.80756e-10 -0.00789398 0)
(1.87463e-10 -0.00789398 0)
(1.93832e-10 -0.00789398 0)
(1.99893e-10 -0.00789398 0)
(2.05696e-10 -0.00789398 0)
(2.11175e-10 -0.00789398 0)
(2.16402e-10 -0.00789398 0)
(2.21476e-10 -0.00789398 0)
(2.26385e-10 -0.00789398 0)
(2.31173e-10 -0.00789398 0)
(2.35903e-10 -0.00789398 0)
(2.40498e-10 -0.00789398 0)
(2.44873e-10 -0.00789398 0)
(2.49037e-10 -0.00789398 0)
(2.52957e-10 -0.00789398 0)
(2.56504e-10 -0.00789398 0)
(2.59596e-10 -0.00789398 0)
(2.62264e-10 -0.00789398 0)
(2.64544e-10 -0.00789398 0)
(2.66435e-10 -0.00789398 0)
(2.67966e-10 -0.00789398 0)
(2.6923e-10 -0.00789398 0)
(2.70328e-10 -0.00789398 0)
(2.71314e-10 -0.00789398 0)
(2.72205e-10 -0.00789398 0)
(2.73011e-10 -0.00789398 0)
(2.73712e-10 -0.00789398 0)
(2.74238e-10 -0.00789398 0)
(2.74481e-10 -0.00789398 0)
(2.74348e-10 -0.00789398 0)
(2.73786e-10 -0.00789398 0)
(2.72772e-10 -0.00789398 0)
(2.71287e-10 -0.00789398 0)
(2.69321e-10 -0.00789398 0)
(2.66908e-10 -0.00789398 0)
(2.64139e-10 -0.00789398 0)
(2.61137e-10 -0.00789398 0)
(2.58009e-10 -0.00789398 0)
(2.54811e-10 -0.00789398 0)
(2.51547e-10 -0.00789398 0)
(2.48195e-10 -0.00789398 0)
(2.44717e-10 -0.00789398 0)
(2.41066e-10 -0.00789398 0)
(2.37171e-10 -0.00789398 0)
(2.32947e-10 -0.00789398 0)
(2.28312e-10 -0.00789398 0)
(2.23224e-10 -0.00789398 0)
(2.17702e-10 -0.00789398 0)
(2.11818e-10 -0.00789398 0)
(2.05671e-10 -0.00789398 0)
(1.99358e-10 -0.00789398 0)
(1.92956e-10 -0.00789398 0)
(1.86522e-10 -0.00789398 0)
(1.80093e-10 -0.00789398 0)
(1.73684e-10 -0.00789398 0)
(1.67289e-10 -0.00789398 0)
(1.60874e-10 -0.00789398 0)
(1.54381e-10 -0.00789398 0)
(1.4773e-10 -0.00789398 0)
(1.4085e-10 -0.00789398 0)
(1.33694e-10 -0.00789398 0)
(1.26249e-10 -0.00789398 0)
(1.1854e-10 -0.00789398 0)
(1.10637e-10 -0.00789398 0)
(1.02637e-10 -0.00789398 0)
(9.46308e-11 -0.00789398 0)
(8.6693e-11 -0.00789398 0)
(7.88953e-11 -0.00789398 0)
(7.12832e-11 -0.00789398 0)
(6.38455e-11 -0.00789398 0)
(5.65495e-11 -0.00789398 0)
(4.93871e-11 -0.00789398 0)
(4.23077e-11 -0.00789398 0)
(3.50322e-11 -0.00789398 0)
(2.69838e-11 -0.00789398 0)
(1.75803e-11 -0.00789398 0)
(6.23977e-12 -0.00789398 0)
(2.64907e-12 -0.00790118 0)
(8.38468e-12 -0.00790118 0)
(1.52479e-11 -0.00790118 0)
(2.31606e-11 -0.00790118 0)
(3.17453e-11 -0.00790118 0)
(4.074e-11 -0.00790118 0)
(4.99387e-11 -0.00790118 0)
(5.91607e-11 -0.00790118 0)
(6.82824e-11 -0.00790118 0)
(7.724e-11 -0.00790118 0)
(8.5886e-11 -0.00790118 0)
(9.42263e-11 -0.00790118 0)
(1.022e-10 -0.00790118 0)
(1.0986e-10 -0.00790118 0)
(1.1731e-10 -0.00790118 0)
(1.24485e-10 -0.00790118 0)
(1.31595e-10 -0.00790118 0)
(1.38719e-10 -0.00790118 0)
(1.4585e-10 -0.00790118 0)
(1.53036e-10 -0.00790118 0)
(1.60263e-10 -0.00790118 0)
(1.67537e-10 -0.00790118 0)
(1.74702e-10 -0.00790118 0)
(1.81691e-10 -0.00790118 0)
(1.88472e-10 -0.00790118 0)
(1.94891e-10 -0.00790118 0)
(2.00979e-10 -0.00790118 0)
(2.0678e-10 -0.00790118 0)
(2.12226e-10 -0.00790118 0)
(2.17413e-10 -0.00790118 0)
(2.2248e-10 -0.00790118 0)
(2.27414e-10 -0.00790118 0)
(2.32232e-10 -0.00790118 0)
(2.36993e-10 -0.00790118 0)
(2.41655e-10 -0.00790118 0)
(2.46139e-10 -0.00790118 0)
(2.50413e-10 -0.00790118 0)
(2.54405e-10 -0.00790118 0)
(2.57984e-10 -0.00790118 0)
(2.6109e-10 -0.00790118 0)
(2.63752e-10 -0.00790118 0)
(2.65994e-10 -0.00790118 0)
(2.67806e-10 -0.00790118 0)
(2.69228e-10 -0.00790118 0)
(2.70388e-10 -0.00790118 0)
(2.71421e-10 -0.00790118 0)
(2.72393e-10 -0.00790118 0)
(2.73309e-10 -0.00790118 0)
(2.74163e-10 -0.00790118 0)
(2.74929e-10 -0.00790118 0)
(2.75539e-10 -0.00790118 0)
(2.75875e-10 -0.00790118 0)
(2.75821e-10 -0.00790118 0)
(2.75299e-10 -0.00790118 0)
(2.74273e-10 -0.00790118 0)
(2.72728e-10 -0.00790118 0)
(2.70674e-10 -0.00790118 0)
(2.68158e-10 -0.00790118 0)
(2.65283e-10 -0.00790118 0)
(2.62182e-10 -0.00790118 0)
(2.58976e-10 -0.00790118 0)
(2.55737e-10 -0.00790118 0)
(2.5248e-10 -0.00790118 0)
(2.49177e-10 -0.00790118 0)
(2.45774e-10 -0.00790118 0)
(2.42201e-10 -0.00790118 0)
(2.38369e-10 -0.00790118 0)
(2.34176e-10 -0.00790118 0)
(2.29533e-10 -0.00790118 0)
(2.24398e-10 -0.00790118 0)
(2.18791e-10 -0.00790118 0)
(2.12795e-10 -0.00790118 0)
(2.06522e-10 -0.00790118 0)
(2.00086e-10 -0.00790118 0)
(1.93581e-10 -0.00790118 0)
(1.87077e-10 -0.00790118 0)
(1.80615e-10 -0.00790117 0)
(1.74207e-10 -0.00790117 0)
(1.67837e-10 -0.00790117 0)
(1.61463e-10 -0.00790117 0)
(1.55012e-10 -0.00790117 0)
(1.48389e-10 -0.00790117 0)
(1.41502e-10 -0.00790117 0)
(1.34298e-10 -0.00790117 0)
(1.26765e-10 -0.00790117 0)
(1.18933e-10 -0.00790117 0)
(1.10875e-10 -0.00790117 0)
(1.02702e-10 -0.00790117 0)
(9.45288e-11 -0.00790117 0)
(8.64424e-11 -0.00790117 0)
(7.85118e-11 -0.00790117 0)
(7.07882e-11 -0.00790117 0)
(6.32516e-11 -0.00790117 0)
(5.58026e-11 -0.00790117 0)
(4.8339e-11 -0.00790117 0)
(4.08115e-11 -0.00790117 0)
(3.31138e-11 -0.00790117 0)
(2.48492e-11 -0.00790117 0)
(1.55676e-11 -0.00790117 0)
(5.31619e-12 -0.00790118 0)
(3.21586e-12 -0.00791018 0)
(9.80342e-12 -0.00791017 0)
(1.69412e-11 -0.00791017 0)
(2.47724e-11 -0.00791017 0)
(3.31582e-11 -0.00791017 0)
(4.19593e-11 -0.00791017 0)
(5.10442e-11 -0.00791017 0)
(6.02489e-11 -0.00791017 0)
(6.93793e-11 -0.00791017 0)
(7.83402e-11 -0.00791017 0)
(8.69741e-11 -0.00791017 0)
(9.52788e-11 -0.00791017 0)
(1.03243e-10 -0.00791017 0)
(1.10807e-10 -0.00791017 0)
(1.18132e-10 -0.00791017 0)
(1.25289e-10 -0.00791017 0)
(1.32347e-10 -0.00791017 0)
(1.39392e-10 -0.00791017 0)
(1.46541e-10 -0.00791017 0)
(1.53793e-10 -0.00791017 0)
(1.61099e-10 -0.00791017 0)
(1.6848e-10 -0.00791017 0)
(1.75753e-10 -0.00791017 0)
(1.82838e-10 -0.00791017 0)
(1.89709e-10 -0.00791017 0)
(1.96192e-10 -0.00791017 0)
(2.02294e-10 -0.00791017 0)
(2.08071e-10 -0.00791017 0)
(2.13495e-10 -0.00791017 0)
(2.18683e-10 -0.00791017 0)
(2.23751e-10 -0.00791017 0)
(2.28681e-10 -0.00791017 0)
(2.3352e-10 -0.00791017 0)
(2.38356e-10 -0.00791017 0)
(2.43127e-10 -0.00791017 0)
(2.47719e-10 -0.00791017 0)
(2.52084e-10 -0.00791017 0)
(2.56148e-10 -0.00791017 0)
(2.59781e-10 -0.00791017 0)
(2.62915e-10 -0.00791017 0)
(2.65567e-10 -0.00791017 0)
(2.67748e-10 -0.00791017 0)
(2.69455e-10 -0.00791017 0)
(2.70762e-10 -0.00791017 0)
(2.71831e-10 -0.00791017 0)
(2.72812e-10 -0.00791017 0)
(2.73769e-10 -0.00791017 0)
(2.74702e-10 -0.00791017 0)
(2.75603e-10 -0.00791017 0)
(2.76451e-10 -0.00791017 0)
(2.77165e-10 -0.00791017 0)
(2.77606e-10 -0.00791017 0)
(2.77626e-10 -0.00791017 0)
(2.7713e-10 -0.00791017 0)
(2.7608e-10 -0.00791017 0)
(2.74472e-10 -0.00791017 0)
(2.72326e-10 -0.00791017 0)
(2.69697e-10 -0.00791017 0)
(2.66699e-10 -0.00791017 0)
(2.63482e-10 -0.00791017 0)
(2.60192e-10 -0.00791017 0)
(2.56918e-10 -0.00791017 0)
(2.53677e-10 -0.00791017 0)
(2.5043e-10 -0.00791017 0)
(2.47103e-10 -0.00791017 0)
(2.43606e-10 -0.00791017 0)
(2.39832e-10 -0.00791017 0)
(2.35666e-10 -0.00791017 0)
(2.3101e-10 -0.00791017 0)
(2.25816e-10 -0.00791017 0)
(2.20109e-10 -0.00791017 0)
(2.13983e-10 -0.00791017 0)
(2.07566e-10 -0.00791017 0)
(2.00991e-10 -0.00791017 0)
(1.94374e-10 -0.00791017 0)
(1.87794e-10 -0.00791017 0)
(1.81295e-10 -0.00791017 0)
(1.74886e-10 -0.00791017 0)
(1.68542e-10 -0.00791017 0)
(1.62207e-10 -0.00791017 0)
(1.55793e-10 -0.00791017 0)
(1.49189e-10 -0.00791017 0)
(1.42289e-10 -0.00791017 0)
(1.35023e-10 -0.00791017 0)
(1.27379e-10 -0.00791017 0)
(1.19402e-10 -0.00791017 0)
(1.11173e-10 -0.00791017 0)
(1.02811e-10 -0.00791017 0)
(9.44531e-11 -0.00791017 0)
(8.62041e-11 -0.00791017 0)
(7.81294e-11 -0.00791017 0)
(7.02752e-11 -0.00791017 0)
(6.2642e-11 -0.00791017 0)
(5.51268e-11 -0.00791017 0)
(4.75525e-11 -0.00791017 0)
(3.97802e-11 -0.00791017 0)
(3.17692e-11 -0.00791017 0)
(2.33953e-11 -0.00791017 0)
(1.43946e-11 -0.00791017 0)
(4.85029e-12 -0.00791017 0)
(3.54579e-12 -0.00792098 0)
(1.06334e-11 -0.00792097 0)
(1.80019e-11 -0.00792097 0)
(2.5923e-11 -0.00792097 0)
(3.43405e-11 -0.00792097 0)
(4.31512e-11 -0.00792097 0)
(5.22285e-11 -0.00792097 0)
(6.14299e-11 -0.00792097 0)
(7.05501e-11 -0.00792097 0)
(7.95149e-11 -0.00792097 0)
(8.81936e-11 -0.00792097 0)
(9.645e-11 -0.00792097 0)
(1.04343e-10 -0.00792097 0)
(1.11899e-10 -0.00792097 0)
(1.19139e-10 -0.00792097 0)
(1.26194e-10 -0.00792097 0)
(1.33212e-10 -0.00792097 0)
(1.40234e-10 -0.00792097 0)
(1.47402e-10 -0.00792097 0)
(1.54727e-10 -0.00792097 0)
(1.62122e-10 -0.00792097 0)
(1.69606e-10 -0.00792097 0)
(1.77003e-10 -0.00792097 0)
(1.84213e-10 -0.00792097 0)
(1.91172e-10 -0.00792097 0)
(1.9769e-10 -0.00792097 0)
(2.03803e-10 -0.00792097 0)
(2.09592e-10 -0.00792097 0)
(2.15016e-10 -0.00792097 0)
(2.20183e-10 -0.00792097 0)
(2.25235e-10 -0.00792097 0)
(2.3018e-10 -0.00792097 0)
(2.35078e-10 -0.00792097 0)
(2.40005e-10 -0.00792097 0)
(2.44882e-10 -0.00792097 0)
(2.49578e-10 -0.00792097 0)
(2.5404e-10 -0.00792097 0)
(2.58192e-10 -0.00792097 0)
(2.61895e-10 -0.00792097 0)
(2.65056e-10 -0.00792097 0)
(2.67677e-10 -0.00792097 0)
(2.69776e-10 -0.00792097 0)
(2.71376e-10 -0.00792097 0)
(2.72578e-10 -0.00792097 0)
(2.73564e-10 -0.00792097 0)
(2.74492e-10 -0.00792097 0)
(2.75427e-10 -0.00792097 0)
(2.76377e-10 -0.00792097 0)
(2.77339e-10 -0.00792097 0)
(2.78286e-10 -0.00792097 0)
(2.79115e-10 -0.00792097 0)
(2.79656e-10 -0.00792097 0)
(2.7974e-10 -0.00792097 0)
(2.79262e-10 -0.00792097 0)
(2.78187e-10 -0.00792097 0)
(2.76514e-10 -0.00792097 0)
(2.74267e-10 -0.00792097 0)
(2.71509e-10 -0.00792097 0)
(2.68371e-10 -0.00792097 0)
(2.65032e-10 -0.00792097 0)
(2.61662e-10 -0.00792097 0)
(2.58361e-10 -0.00792097 0)
(2.55142e-10 -0.00792097 0)
(2.5195e-10 -0.00792097 0)
(2.48696e-10 -0.00792097 0)
(2.45271e-10 -0.00792097 0)
(2.41553e-10 -0.00792097 0)
(2.37409e-10 -0.00792097 0)
(2.32731e-10 -0.00792097 0)
(2.27465e-10 -0.00792097 0)
(2.21644e-10 -0.00792097 0)
(2.15371e-10 -0.00792097 0)
(2.08796e-10 -0.00792097 0)
(2.02074e-10 -0.00792097 0)
(1.95338e-10 -0.00792097 0)
(1.88676e-10 -0.00792097 0)
(1.82136e-10 -0.00792097 0)
(1.75724e-10 -0.00792097 0)
(1.69407e-10 -0.00792097 0)
(1.6311e-10 -0.00792097 0)
(1.56725e-10 -0.00792097 0)
(1.50129e-10 -0.00792097 0)
(1.43202e-10 -0.00792097 0)
(1.3586e-10 -0.00792097 0)
(1.28087e-10 -0.00792097 0)
(1.19939e-10 -0.00792097 0)
(1.11522e-10 -0.00792097 0)
(1.02968e-10 -0.00792097 0)
(9.44242e-11 -0.00792097 0)
(8.60191e-11 -0.00792097 0)
(7.7817e-11 -0.00792097 0)
(6.98397e-11 -0.00792097 0)
(6.20867e-11 -0.00792097 0)
(5.44876e-11 -0.00792097 0)
(4.68791e-11 -0.00792097 0)
(3.90614e-11 -0.00792097 0)
(3.09356e-11 -0.00792097 0)
(2.25018e-11 -0.00792097 0)
(1.36852e-11 -0.00792097 0)
(4.57929e-12 -0.00792097 0)
(3.79981e-12 -0.00793358 0)
(1.12697e-11 -0.00793357 0)
(1.88214e-11 -0.00793357 0)
(2.68292e-11 -0.00793357 0)
(3.53277e-11 -0.00793357 0)
(4.42117e-11 -0.00793357 0)
(5.33401e-11 -0.00793357 0)
(6.26238e-11 -0.00793357 0)
(7.18357e-11 -0.00793357 0)
(8.079e-11 -0.00793357 0)
(8.94573e-11 -0.00793357 0)
(9.77392e-11 -0.00793357 0)
(1.05581e-10 -0.00793357 0)
(1.13068e-10 -0.00793357 0)
(1.20255e-10 -0.00793357 0)
(1.27234e-10 -0.00793357 0)
(1.34209e-10 -0.00793357 0)
(1.41237e-10 -0.00793357 0)
(1.48434e-10 -0.00793357 0)
(1.5582e-10 -0.00793357 0)
(1.63318e-10 -0.00793357 0)
(1.70941e-10 -0.00793357 0)
(1.78473e-10 -0.00793357 0)
(1.85783e-10 -0.00793357 0)
(1.92816e-10 -0.00793357 0)
(1.99392e-10 -0.00793357 0)
(2.05542e-10 -0.00793357 0)
(2.11337e-10 -0.00793357 0)
(2.16743e-10 -0.00793357 0)
(2.21891e-10 -0.00793357 0)
(2.26946e-10 -0.00793357 0)
(2.3193e-10 -0.00793357 0)
(2.369e-10 -0.00793357 0)
(2.41921e-10 -0.00793357 0)
(2.469e-10 -0.00793357 0)
(2.51707e-10 -0.00793357 0)
(2.56284e-10 -0.00793357 0)
(2.60542e-10 -0.00793357 0)
(2.64311e-10 -0.00793357 0)
(2.67482e-10 -0.00793357 0)
(2.70056e-10 -0.00793357 0)
(2.72072e-10 -0.00793357 0)
(2.73573e-10 -0.00793357 0)
(2.74676e-10 -0.00793357 0)
(2.75576e-10 -0.00793357 0)
(2.76443e-10 -0.00793357 0)
(2.77358e-10 -0.00793357 0)
(2.78339e-10 -0.00793357 0)
(2.79379e-10 -0.00793357 0)
(2.80434e-10 -0.00793357 0)
(2.81375e-10 -0.00793357 0)
(2.82009e-10 -0.00793357 0)
(2.82151e-10 -0.00793357 0)
(2.81691e-10 -0.00793357 0)
(2.80589e-10 -0.00793357 0)
(2.78844e-10 -0.00793357 0)
(2.76481e-10 -0.00793357 0)
(2.73579e-10 -0.00793357 0)
(2.70294e-10 -0.00793357 0)
(2.66835e-10 -0.00793357 0)
(2.6339e-10 -0.00793357 0)
(2.60066e-10 -0.00793357 0)
(2.56868e-10 -0.00793357 0)
(2.5373e-10 -0.00793357 0)
(2.50547e-10 -0.00793357 0)
(2.47194e-10 -0.00793357 0)
(2.43528e-10 -0.00793357 0)
(2.39399e-10 -0.00793357 0)
(2.34686e-10 -0.00793357 0)
(2.29336e-10 -0.00793357 0)
(2.23386e-10 -0.00793357 0)
(2.16953e-10 -0.00793357 0)
(2.1021e-10 -0.00793357 0)
(2.03333e-10 -0.00793357 0)
(1.96472e-10 -0.00793357 0)
(1.89725e-10 -0.00793357 0)
(1.8314e-10 -0.00793357 0)
(1.76722e-10 -0.00793357 0)
(1.70429e-10 -0.00793357 0)
(1.64168e-10 -0.00793357 0)
(1.57811e-10 -0.00793357 0)
(1.51212e-10 -0.00793357 0)
(1.44241e-10 -0.00793357 0)
(1.36808e-10 -0.00793357 0)
(1.28889e-10 -0.00793357 0)
(1.2055e-10 -0.00793357 0)
(1.11924e-10 -0.00793357 0)
(1.03167e-10 -0.00793357 0)
(9.44357e-11 -0.00793357 0)
(8.5877e-11 -0.00793357 0)
(7.75704e-11 -0.00793357 0)
(6.95172e-11 -0.00793357 0)
(6.16812e-11 -0.00793357 0)
(5.39929e-11 -0.00793357 0)
(4.63306e-11 -0.00793357 0)
(3.8518e-11 -0.00793357 0)
(3.04035e-11 -0.00793357 0)
(2.19801e-11 -0.00793357 0)
(1.32738e-11 -0.00793357 0)
(4.42104e-12 -0.00793357 0)
(3.93836e-12 -0.00794798 0)
(1.16978e-11 -0.00794798 0)
(1.95071e-11 -0.00794798 0)
(2.76542e-11 -0.00794798 0)
(3.62109e-11 -0.00794798 0)
(4.5198e-11 -0.00794798 0)
(5.44434e-11 -0.00794798 0)
(6.37845e-11 -0.00794798 0)
(7.30878e-11 -0.00794798 0)
(8.21388e-11 -0.00794798 0)
(9.08184e-11 -0.00794798 0)
(9.90989e-11 -0.00794798 0)
(1.06918e-10 -0.00794798 0)
(1.14334e-10 -0.00794798 0)
(1.21466e-10 -0.00794798 0)
(1.28408e-10 -0.00794798 0)
(1.35354e-10 -0.00794798 0)
(1.42376e-10 -0.00794798 0)
(1.49613e-10 -0.00794798 0)
(1.57093e-10 -0.00794798 0)
(1.64717e-10 -0.00794798 0)
(1.72467e-10 -0.00794798 0)
(1.80118e-10 -0.00794798 0)
(1.87539e-10 -0.00794798 0)
(1.94666e-10 -0.00794798 0)
(2.01306e-10 -0.00794798 0)
(2.07485e-10 -0.00794798 0)
(2.1328e-10 -0.00794798 0)
(2.1867e-10 -0.00794798 0)
(2.23812e-10 -0.00794798 0)
(2.28891e-10 -0.00794798 0)
(2.33927e-10 -0.00794798 0)
(2.38969e-10 -0.00794798 0)
(2.44082e-10 -0.00794798 0)
(2.49175e-10 -0.00794798 0)
(2.54112e-10 -0.00794798 0)
(2.5882e-10 -0.00794798 0)
(2.6318e-10 -0.00794798 0)
(2.67003e-10 -0.00794798 0)
(2.70172e-10 -0.00794798 0)
(2.72701e-10 -0.00794798 0)
(2.74639e-10 -0.00794798 0)
(2.76043e-10 -0.00794798 0)
(2.77042e-10 -0.00794798 0)
(2.7785e-10 -0.00794798 0)
(2.7866e-10 -0.00794798 0)
(2.79568e-10 -0.00794798 0)
(2.80593e-10 -0.00794798 0)
(2.8172e-10 -0.00794798 0)
(2.82882e-10 -0.00794798 0)
(2.8393e-10 -0.00794798 0)
(2.84654e-10 -0.00794798 0)
(2.84856e-10 -0.00794798 0)
(2.84414e-10 -0.00794798 0)
(2.83279e-10 -0.00794798 0)
(2.81447e-10 -0.00794798 0)
(2.78953e-10 -0.00794798 0)
(2.75898e-10 -0.00794798 0)
(2.72466e-10 -0.00794798 0)
(2.68891e-10 -0.00794798 0)
(2.65375e-10 -0.00794798 0)
(2.62028e-10 -0.00794798 0)
(2.5885e-10 -0.00794798 0)
(2.55765e-10 -0.00794798 0)
(2.52653e-10 -0.00794798 0)
(2.49369e-10 -0.00794798 0)
(2.4575e-10 -0.00794798 0)
(2.41627e-10 -0.00794798 0)
(2.36869e-10 -0.00794798 0)
(2.31421e-10 -0.00794798 0)
(2.25327e-10 -0.00794798 0)
(2.18724e-10 -0.00794798 0)
(2.11804e-10 -0.00794798 0)
(2.04766e-10 -0.00794798 0)
(1.97776e-10 -0.00794798 0)
(1.9094e-10 -0.00794798 0)
(1.8431e-10 -0.00794798 0)
(1.77884e-10 -0.00794798 0)
(1.7161e-10 -0.00794798 0)
(1.6538e-10 -0.00794798 0)
(1.59045e-10 -0.00794797 0)
(1.52435e-10 -0.00794797 0)
(1.45405e-10 -0.00794797 0)
(1.37862e-10 -0.00794797 0)
(1.29786e-10 -0.00794797 0)
(1.21245e-10 -0.00794797 0)
(1.12395e-10 -0.00794797 0)
(1.03423e-10 -0.00794797 0)
(9.45035e-11 -0.00794797 0)
(8.57861e-11 -0.00794797 0)
(7.73718e-11 -0.00794798 0)
(6.9266e-11 -0.00794798 0)
(6.14008e-11 -0.00794798 0)
(5.36739e-11 -0.00794798 0)
(4.59658e-11 -0.00794798 0)
(3.81437e-11 -0.00794798 0)
(3.00608e-11 -0.00794798 0)
(2.16773e-11 -0.00794798 0)
(1.30415e-11 -0.00794798 0)
(4.33001e-12 -0.00794798 0)
(4.02443e-12 -0.00796418 0)
(1.19746e-11 -0.00796418 0)
(1.99905e-11 -0.00796418 0)
(2.83595e-11 -0.00796418 0)
(3.70774e-11 -0.00796418 0)
(4.61522e-11 -0.00796418 0)
(5.55209e-11 -0.00796418 0)
(6.49736e-11 -0.00796418 0)
(7.43588e-11 -0.00796418 0)
(8.35085e-11 -0.00796418 0)
(9.22441e-11 -0.00796418 0)
(1.00521e-10 -0.00796418 0)
(1.0832e-10 -0.00796418 0)
(1.15708e-10 -0.00796418 0)
(1.22798e-10 -0.00796418 0)
(1.29693e-10 -0.00796418 0)
(1.36613e-10 -0.00796418 0)
(1.43659e-10 -0.00796418 0)
(1.50967e-10 -0.00796418 0)
(1.58545e-10 -0.00796418 0)
(1.66286e-10 -0.00796418 0)
(1.74167e-10 -0.00796418 0)
(1.81948e-10 -0.00796418 0)
(1.89489e-10 -0.00796418 0)
(1.96715e-10 -0.00796418 0)
(2.03415e-10 -0.00796418 0)
(2.09616e-10 -0.00796418 0)
(2.15411e-10 -0.00796418 0)
(2.208e-10 -0.00796418 0)
(2.25956e-10 -0.00796418 0)
(2.31067e-10 -0.00796418 0)
(2.36153e-10 -0.00796418 0)
(2.41269e-10 -0.00796418 0)
(2.46487e-10 -0.00796418 0)
(2.51714e-10 -0.00796418 0)
(2.56795e-10 -0.00796418 0)
(2.61631e-10 -0.00796418 0)
(2.66084e-10 -0.00796418 0)
(2.69954e-10 -0.00796418 0)
(2.73124e-10 -0.00796418 0)
(2.7561e-10 -0.00796418 0)
(2.77471e-10 -0.00796418 0)
(2.78771e-10 -0.00796418 0)
(2.79661e-10 -0.00796418 0)
(2.8038e-10 -0.00796418 0)
(2.81143e-10 -0.00796418 0)
(2.82058e-10 -0.00796418 0)
(2.83136e-10 -0.00796418 0)
(2.8435e-10 -0.00796418 0)
(2.85617e-10 -0.00796418 0)
(2.86774e-10 -0.00796418 0)
(2.87591e-10 -0.00796418 0)
(2.87854e-10 -0.00796418 0)
(2.87423e-10 -0.00796418 0)
(2.86242e-10 -0.00796418 0)
(2.84309e-10 -0.00796418 0)
(2.81675e-10 -0.00796418 0)
(2.78463e-10 -0.00796418 0)
(2.74886e-10 -0.00796418 0)
(2.71197e-10 -0.00796418 0)
(2.67611e-10 -0.00796418 0)
(2.6424e-10 -0.00796418 0)
(2.61083e-10 -0.00796418 0)
(2.58051e-10 -0.00796418 0)
(2.5501e-10 -0.00796418 0)
(2.51793e-10 -0.00796418 0)
(2.48213e-10 -0.00796418 0)
(2.44086e-10 -0.00796418 0)
(2.39271e-10 -0.00796418 0)
(2.33713e-10 -0.00796418 0)
(2.27464e-10 -0.00796418 0)
(2.2068e-10 -0.00796418 0)
(2.13575e-10 -0.00796418 0)
(2.0637e-10 -0.00796418 0)
(1.99245e-10 -0.00796418 0)
(1.92318e-10 -0.00796418 0)
(1.85643e-10 -0.00796418 0)
(1.79211e-10 -0.00796418 0)
(1.72954e-10 -0.00796418 0)
(1.66749e-10 -0.00796418 0)
(1.60427e-10 -0.00796418 0)
(1.53796e-10 -0.00796418 0)
(1.46692e-10 -0.00796418 0)
(1.3902e-10 -0.00796418 0)
(1.30768e-10 -0.00796418 0)
(1.22017e-10 -0.00796418 0)
(1.12936e-10 -0.00796418 0)
(1.03744e-10 -0.00796418 0)
(9.46389e-11 -0.00796418 0)
(8.57709e-11 -0.00796418 0)
(7.72457e-11 -0.00796418 0)
(6.90812e-11 -0.00796418 0)
(6.12027e-11 -0.00796418 0)
(5.34797e-11 -0.00796418 0)
(4.57641e-11 -0.00796418 0)
(3.79344e-11 -0.00796418 0)
(2.98694e-11 -0.00796418 0)
(2.15157e-11 -0.00796418 0)
(1.29171e-11 -0.00796418 0)
(4.27925e-12 -0.00796418 0)
(4.10182e-12 -0.00798219 0)
(1.22406e-11 -0.00798219 0)
(2.04243e-11 -0.00798219 0)
(2.89404e-11 -0.00798219 0)
(3.78478e-11 -0.00798219 0)
(4.70752e-11 -0.00798219 0)
(5.65766e-11 -0.00798219 0)
(6.61807e-11 -0.00798219 0)
(7.56845e-11 -0.00798219 0)
(8.49109e-11 -0.00798219 0)
(9.3698e-11 -0.00798219 0)
(1.02007e-10 -0.00798219 0)
(1.0981e-10 -0.00798219 0)
(1.17172e-10 -0.00798219 0)
(1.24217e-10 -0.00798219 0)
(1.31084e-10 -0.00798219 0)
(1.38011e-10 -0.00798219 0)
(1.45096e-10 -0.00798219 0)
(1.52478e-10 -0.00798219 0)
(1.60159e-10 -0.00798219 0)
(1.68022e-10 -0.00798219 0)
(1.76041e-10 -0.00798219 0)
(1.83965e-10 -0.00798219 0)
(1.91633e-10 -0.00798219 0)
(1.9895e-10 -0.00798219 0)
(2.05702e-10 -0.00798219 0)
(2.11927e-10 -0.00798219 0)
(2.17736e-10 -0.00798219 0)
(2.23138e-10 -0.00798219 0)
(2.28313e-10 -0.00798219 0)
(2.33455e-10 -0.00798219 0)
(2.38595e-10 -0.00798219 0)
(2.43799e-10 -0.00798219 0)
(2.49141e-10 -0.00798219 0)
(2.54514e-10 -0.00798219 0)
(2.59739e-10 -0.00798219 0)
(2.64699e-10 -0.00798219 0)
(2.69244e-10 -0.00798219 0)
(2.73163e-10 -0.00798219 0)
(2.76336e-10 -0.00798219 0)
(2.78778e-10 -0.00798219 0)
(2.80552e-10 -0.00798219 0)
(2.81743e-10 -0.00798219 0)
(2.82526e-10 -0.00798219 0)
(2.83166e-10 -0.00798219 0)
(2.83896e-10 -0.00798219 0)
(2.84824e-10 -0.00798219 0)
(2.85958e-10 -0.00798219 0)