/*--------------------------------*- C++ -*----------------------------------*\
| =========                 |                                                 |
| \\      /  F ield         | OpenFOAM: The Open Source CFD Toolbox           |
|  \\    /   O peration     | Version:  2.3.x                                 |
|   \\  /    A nd           | Web:      www.OpenFOAM.org                      |
|    \\/     M anipulation  |                                                 |
\*---------------------------------------------------------------------------*/
FoamFile
{
    version     2.0;
    format      ascii;
    class       surfaceScalarField;
    location    "0.04";
    object      phi;
}
// * * * * * * * * * * * * * * * * * * * * * * * * * * * * * * * * * * * * * //

dimensions      [1 0 -1 0 0 0 0];

internalField   nonuniform List<scalar> 
99400
(
-1.30519e-11
-0.00107921
-1.92726e-11
-0.00107921
-2.65127e-11
-0.00107921
-3.3941e-11
-0.00107921
-4.16008e-11
-0.00107921
-4.93703e-11
-0.00107921
-5.71332e-11
-0.00107921
-6.48567e-11
-0.00107921
-7.25598e-11
-0.00107921
-8.02083e-11
-0.00107921
-8.77921e-11
-0.00107921
-9.53405e-11
-0.00107921
-1.02758e-10
-0.00107921
-1.10124e-10
-0.00107921
-1.17385e-10
-0.00107921
-1.24547e-10
-0.00107921
-1.3161e-10
-0.00107921
-1.38571e-10
-0.00107921
-1.45425e-10
-0.00107921
-1.52126e-10
-0.00107921
-1.58725e-10
-0.00107921
-1.65199e-10
-0.00107921
-1.71515e-10
-0.00107921
-1.77718e-10
-0.00107921
-1.83753e-10
-0.00107921
-1.89655e-10
-0.00107921
-1.95461e-10
-0.00107921
-2.01044e-10
-0.00107921
-2.06472e-10
-0.00107921
-2.11843e-10
-0.00107921
-2.16983e-10
-0.00107921
-2.21869e-10
-0.00107921
-2.26692e-10
-0.00107921
-2.31398e-10
-0.00107921
-2.35809e-10
-0.00107921
-2.40008e-10
-0.00107921
-2.44122e-10
-0.00107921
-2.48046e-10
-0.00107921
-2.51687e-10
-0.00107921
-2.55137e-10
-0.00107921
-2.58453e-10
-0.00107921
-2.61546e-10
-0.00107921
-2.64361e-10
-0.00107921
-2.66969e-10
-0.00107921
-2.69417e-10
-0.00107921
-2.71646e-10
-0.00107921
-2.73596e-10
-0.00107921
-2.75299e-10
-0.00107921
-2.76805e-10
-0.00107921
-2.78101e-10
-0.00107921
-2.79131e-10
-0.00107921
-2.79883e-10
-0.00107921
-2.80386e-10
-0.00107921
-2.80659e-10
-0.00107921
-2.80678e-10
-0.00107921
-2.80416e-10
-0.00107921
-2.79869e-10
-0.00107921
-2.79049e-10
-0.00107921
-2.7796e-10
-0.00107921
-2.76588e-10
-0.00107921
-2.74917e-10
-0.00107921
-2.72948e-10
-0.00107921
-2.70688e-10
-0.00107921
-2.68138e-10
-0.00107921
-2.65286e-10
-0.00107921
-2.62123e-10
-0.00107921
-2.58648e-10
-0.00107921
-2.5487e-10
-0.00107921
-2.50795e-10
-0.00107921
-2.46419e-10
-0.00107921
-2.41733e-10
-0.00107921
-2.36732e-10
-0.00107921
-2.31422e-10
-0.00107921
-2.25813e-10
-0.00107921
-2.19913e-10
-0.00107921
-2.13726e-10
-0.00107921
-2.07249e-10
-0.00107921
-2.00486e-10
-0.00107921
-1.93444e-10
-0.00107921
-1.86134e-10
-0.00107921
-1.7857e-10
-0.00107921
-1.70759e-10
-0.00107921
-1.62703e-10
-0.00107921
-1.54406e-10
-0.00107921
-1.45875e-10
-0.00107921
-1.3712e-10
-0.00107921
-1.28156e-10
-0.00107921
-1.18999e-10
-0.00107921
-1.09664e-10
-0.00107921
-1.00158e-10
-0.00107921
-9.04888e-11
-0.00107921
-8.06596e-11
-0.00107921
-7.06789e-11
-0.00107921
-6.05812e-11
-0.00107921
-5.04093e-11
-0.00107921
-4.01417e-11
-0.00107921
-2.95858e-11
-0.00107921
-1.88415e-11
-0.00107921
-6.21402e-12
-0.00107921
-0.00107921
-1.22292e-11
-0.00108005
-1.89259e-11
-0.00108005
-2.6228e-11
-0.00108005
-3.38002e-11
-0.00108005
-4.15443e-11
-0.00108005
-4.93526e-11
-0.00108005
-5.71332e-11
-0.00108005
-6.48854e-11
-0.00108005
-7.2583e-11
-0.00108005
-8.02425e-11
-0.00108005
-8.78225e-11
-0.00108005
-9.53771e-11
-0.00108005
-1.02811e-10
-0.00108005
-1.10182e-10
-0.00108005
-1.17441e-10
-0.00108005
-1.24617e-10
-0.00108005
-1.3169e-10
-0.00108005
-1.38634e-10
-0.00108005
-1.45503e-10
-0.00108005
-1.52209e-10
-0.00108005
-1.58812e-10
-0.00108005
-1.65297e-10
-0.00108005
-1.7158e-10
-0.00108005
-1.7781e-10
-0.00108005
-1.83882e-10
-0.00108005
-1.89723e-10
-0.00108005
-1.95526e-10
-0.00108005
-2.01188e-10
-0.00108005
-2.06597e-10
-0.00108005
-2.119e-10
-0.00108005
-2.17078e-10
-0.00108005
-2.22024e-10
-0.00108005
-2.26818e-10
-0.00108005
-2.31482e-10
-0.00108005
-2.35925e-10
-0.00108005
-2.40166e-10
-0.00108005
-2.44258e-10
-0.00108005
-2.4815e-10
-0.00108005
-2.51813e-10
-0.00108005
-2.55303e-10
-0.00108005
-2.58611e-10
-0.00108005
-2.61666e-10
-0.00108005
-2.64481e-10
-0.00108005
-2.67129e-10
-0.00108005
-2.696e-10
-0.00108005
-2.71805e-10
-0.00108005
-2.73728e-10
-0.00108005
-2.75441e-10
-0.00108005
-2.76984e-10
-0.00108005
-2.78296e-10
-0.00108005
-2.79311e-10
-0.00108005
-2.80044e-10
-0.00108005
-2.80553e-10
-0.00108005
-2.80849e-10
-0.00108005
-2.80885e-10
-0.00108005
-2.80621e-10
-0.00108005
-2.80063e-10
-0.00108005
-2.79241e-10
-0.00108005
-2.78162e-10
-0.00108005
-2.76802e-10
-0.00108005
-2.75136e-10
-0.00108005
-2.73165e-10
-0.00108005
-2.70901e-10
-0.00108005
-2.68351e-10
-0.00108005
-2.65503e-10
-0.00108005
-2.62344e-10
-0.00108005
-2.58871e-10
-0.00108005
-2.55092e-10
-0.00108005
-2.51015e-10
-0.00108005
-2.46636e-10
-0.00108005
-2.41948e-10
-0.00108005
-2.36947e-10
-0.00108005
-2.31636e-10
-0.00108005
-2.26025e-10
-0.00108005
-2.2012e-10
-0.00108005
-2.13926e-10
-0.00108005
-2.07444e-10
-0.00108005
-2.00675e-10
-0.00108005
-1.93628e-10
-0.00108005
-1.86315e-10
-0.00108005
-1.78747e-10
-0.00108005
-1.70931e-10
-0.00108005
-1.62868e-10
-0.00108005
-1.54564e-10
-0.00108005
-1.46024e-10
-0.00108005
-1.37261e-10
-0.00108005
-1.2829e-10
-0.00108005
-1.19126e-10
-0.00108005
-1.09783e-10
-0.00108005
-1.00274e-10
-0.00108005
-9.06051e-11
-0.00108005
-8.07764e-11
-0.00108005
-7.07845e-11
-0.00108005
-6.06488e-11
-0.00108005
-5.0432e-11
-0.00108005
-4.02102e-11
-0.00108005
-2.9894e-11
-0.00108005
-1.93613e-11
-0.00108005
-7.18386e-12
-0.00108005
-0.00108005
-9.731e-12
-0.00108144
-1.81777e-11
-0.00108144
-2.58556e-11
-0.00108144
-3.36352e-11
-0.00108144
-4.14599e-11
-0.00108144
-4.93142e-11
-0.00108144
-5.71377e-11
-0.00108144
-6.49187e-11
-0.00108144
-7.26424e-11
-0.00108144
-8.03099e-11
-0.00108144
-8.79137e-11
-0.00108144
-9.54477e-11
-0.00108144
-1.02903e-10
-0.00108144
-1.10291e-10
-0.00108144
-1.17563e-10
-0.00108144
-1.24739e-10
-0.00108144
-1.31833e-10
-0.00108144
-1.38773e-10
-0.00108144
-1.45666e-10
-0.00108144
-1.52375e-10
-0.00108144
-1.58949e-10
-0.00108144
-1.65486e-10
-0.00108144
-1.71784e-10
-0.00108144
-1.77952e-10
-0.00108144
-1.84051e-10
-0.00108144
-1.89949e-10
-0.00108144
-1.95719e-10
-0.00108144
-2.01357e-10
-0.00108144
-2.06802e-10
-0.00108144
-2.12124e-10
-0.00108144
-2.17288e-10
-0.00108144
-2.22235e-10
-0.00108144
-2.2705e-10
-0.00108144
-2.31727e-10
-0.00108144
-2.3617e-10
-0.00108144
-2.40407e-10
-0.00108144
-2.44502e-10
-0.00108144
-2.48412e-10
-0.00108144
-2.52095e-10
-0.00108144
-2.55581e-10
-0.00108144
-2.58868e-10
-0.00108144
-2.61927e-10
-0.00108144
-2.64777e-10
-0.00108144
-2.67447e-10
-0.00108144
-2.69901e-10
-0.00108144
-2.72082e-10
-0.00108144
-2.74016e-10
-0.00108144
-2.75769e-10
-0.00108144
-2.77337e-10
-0.00108144
-2.78639e-10
-0.00108144
-2.79635e-10
-0.00108144
-2.80374e-10
-0.00108144
-2.80911e-10
-0.00108144
-2.81233e-10
-0.00108144
-2.81273e-10
-0.00108144
-2.81e-10
-0.00108144
-2.8044e-10
-0.00108144
-2.7963e-10
-0.00108144
-2.7857e-10
-0.00108144
-2.7722e-10
-0.00108144
-2.75554e-10
-0.00108144
-2.73578e-10
-0.00108144
-2.71315e-10
-0.00108144
-2.68772e-10
-0.00108144
-2.65933e-10
-0.00108144
-2.62778e-10
-0.00108144
-2.59304e-10
-0.00108144
-2.5552e-10
-0.00108144
-2.5144e-10
-0.00108144
-2.4706e-10
-0.00108144
-2.42373e-10
-0.00108144
-2.3737e-10
-0.00108144
-2.32054e-10
-0.00108144
-2.26434e-10
-0.00108144
-2.2052e-10
-0.00108144
-2.14316e-10
-0.00108144
-2.07826e-10
-0.00108144
-2.01051e-10
-0.00108144
-1.93995e-10
-0.00108144
-1.86672e-10
-0.00108144
-1.79092e-10
-0.00108144
-1.71264e-10
-0.00108144
-1.63189e-10
-0.00108144
-1.54872e-10
-0.00108144
-1.4632e-10
-0.00108144
-1.37543e-10
-0.00108144
-1.28557e-10
-0.00108144
-1.19377e-10
-0.00108144
-1.10016e-10
-0.00108144
-1.0049e-10
-0.00108144
-9.08131e-11
-0.00108144
-8.09949e-11
-0.00108144
-7.10292e-11
-0.00108144
-6.08917e-11
-0.00108144
-5.05969e-11
-0.00108144
-4.02644e-11
-0.00108144
-3.00832e-11
-0.00108144
-1.99793e-11
-0.00108144
-9.79485e-12
-0.00108144
-0.00108144
-9.15649e-12
-0.0010834
-1.76081e-11
-0.0010834
-2.55934e-11
-0.0010834
-3.3473e-11
-0.0010834
-4.13935e-11
-0.0010834
-4.92803e-11
-0.0010834
-5.71512e-11
-0.0010834
-6.49605e-11
-0.0010834
-7.2731e-11
-0.0010834
-8.04122e-11
-0.0010834
-8.80327e-11
-0.0010834
-9.55907e-11
-0.0010834
-1.03047e-10
-0.0010834
-1.10444e-10
-0.0010834
-1.17741e-10
-0.0010834
-1.24923e-10
-0.0010834
-1.32054e-10
-0.0010834
-1.38986e-10
-0.0010834
-1.45862e-10
-0.0010834
-1.52639e-10
-0.0010834
-1.59213e-10
-0.0010834
-1.657e-10
-0.0010834
-1.72039e-10
-0.0010834
-1.78246e-10
-0.0010834
-1.84317e-10
-0.0010834
-1.90207e-10
-0.0010834
-1.96007e-10
-0.0010834
-2.01657e-10
-0.0010834
-2.07096e-10
-0.0010834
-2.12424e-10
-0.0010834
-2.17603e-10
-0.0010834
-2.22567e-10
-0.0010834
-2.27396e-10
-0.0010834
-2.32076e-10
-0.0010834
-2.36515e-10
-0.0010834
-2.40765e-10
-0.0010834
-2.4489e-10
-0.0010834
-2.48813e-10
-0.0010834
-2.5248e-10
-0.0010834
-2.55956e-10
-0.0010834
-2.59268e-10
-0.0010834
-2.62362e-10
-0.0010834
-2.65216e-10
-0.0010834
-2.67867e-10
-0.0010834
-2.70314e-10
-0.0010834
-2.72519e-10
-0.0010834
-2.74488e-10
-0.0010834
-2.76258e-10
-0.0010834
-2.7782e-10
-0.0010834
-2.79116e-10
-0.0010834
-2.80124e-10
-0.0010834
-2.80889e-10
-0.0010834
-2.81451e-10
-0.0010834
-2.81782e-10
-0.0010834
-2.81822e-10
-0.0010834
-2.81551e-10
-0.0010834
-2.81004e-10
-0.0010834
-2.80214e-10
-0.0010834
-2.79168e-10
-0.0010834
-2.77824e-10
-0.0010834
-2.76157e-10
-0.0010834
-2.74183e-10
-0.0010834
-2.71929e-10
-0.0010834
-2.69397e-10
-0.0010834
-2.66566e-10
-0.0010834
-2.63411e-10
-0.0010834
-2.59932e-10
-0.0010834
-2.56145e-10
-0.0010834
-2.52064e-10
-0.0010834
-2.47686e-10
-0.0010834
-2.42999e-10
-0.0010834
-2.37991e-10
-0.0010834
-2.32664e-10
-0.0010834
-2.27031e-10
-0.0010834
-2.21104e-10
-0.0010834
-2.14892e-10
-0.0010834
-2.08393e-10
-0.0010834
-2.01606e-10
-0.0010834
-1.94536e-10
-0.0010834
-1.87196e-10
-0.0010834
-1.79598e-10
-0.0010834
-1.71751e-10
-0.0010834
-1.6366e-10
-0.0010834
-1.55327e-10
-0.0010834
-1.46757e-10
-0.0010834
-1.37959e-10
-0.0010834
-1.28949e-10
-0.0010834
-1.19746e-10
-0.0010834
-1.10364e-10
-0.0010834
-1.0081e-10
-0.0010834
-9.11006e-11
-0.0010834
-8.12632e-11
-0.0010834
-7.13177e-11
-0.0010834
-6.12517e-11
-0.0010834
-5.10087e-11
-0.0010834
-4.05861e-11
-0.0010834
-3.02189e-11
-0.0010834
-2.01834e-11
-0.0010834
-1.01936e-11
-0.0010834
-0.0010834
-8.70083e-12
-0.00108591
-1.71585e-11
-0.00108591
-2.53389e-11
-0.00108591
-3.33614e-11
-0.00108591
-4.13511e-11
-0.00108591
-4.9288e-11
-0.00108591
-5.71871e-11
-0.00108591
-6.5034e-11
-0.00108591
-7.2816e-11
-0.00108591
-8.05643e-11
-0.00108591
-8.81878e-11
-0.00108591
-9.5777e-11
-0.00108591
-1.03243e-10
-0.00108591
-1.10656e-10
-0.00108591
-1.17995e-10
-0.00108591
-1.25158e-10
-0.00108591
-1.32293e-10
-0.00108591
-1.39303e-10
-0.00108591
-1.4617e-10
-0.00108591
-1.52915e-10
-0.00108591
-1.59538e-10
-0.00108591
-1.66052e-10
-0.00108591
-1.72371e-10
-0.00108591
-1.78584e-10
-0.00108591
-1.84676e-10
-0.00108591
-1.90576e-10
-0.00108591
-1.96381e-10
-0.00108591
-2.02036e-10
-0.00108591
-2.07481e-10
-0.00108591
-2.12827e-10
-0.00108591
-2.18031e-10
-0.00108591
-2.23006e-10
-0.00108591
-2.27829e-10
-0.00108591
-2.32517e-10
-0.00108591
-2.36987e-10
-0.00108591
-2.41264e-10
-0.00108591
-2.45387e-10
-0.00108591
-2.49296e-10
-0.00108591
-2.52974e-10
-0.00108591
-2.56484e-10
-0.00108591
-2.59822e-10
-0.00108591
-2.62912e-10
-0.00108591
-2.65753e-10
-0.00108591
-2.6841e-10
-0.00108591
-2.70885e-10
-0.00108591
-2.7312e-10
-0.00108591
-2.75102e-10
-0.00108591
-2.76873e-10
-0.00108591
-2.78439e-10
-0.00108591
-2.79751e-10
-0.00108591
-2.80784e-10
-0.00108591
-2.81572e-10
-0.00108591
-2.82148e-10
-0.00108591
-2.82486e-10
-0.00108591
-2.82534e-10
-0.00108591
-2.82278e-10
-0.00108591
-2.81751e-10
-0.00108591
-2.80979e-10
-0.00108591
-2.79944e-10
-0.00108591
-2.78603e-10
-0.00108591
-2.7694e-10
-0.00108591
-2.74976e-10
-0.00108591
-2.72736e-10
-0.00108591
-2.70215e-10
-0.00108591
-2.67387e-10
-0.00108591
-2.64231e-10
-0.00108591
-2.60749e-10
-0.00108591
-2.56962e-10
-0.00108591
-2.52883e-10
-0.00108591
-2.48507e-10
-0.00108591
-2.43816e-10
-0.00108591
-2.38798e-10
-0.00108591
-2.33457e-10
-0.00108591
-2.27808e-10
-0.00108591
-2.2187e-10
-0.00108591
-2.15648e-10
-0.00108591
-2.09137e-10
-0.00108591
-2.02332e-10
-0.00108591
-1.95241e-10
-0.00108591
-1.87878e-10
-0.00108591
-1.80257e-10
-0.00108591
-1.7239e-10
-0.00108591
-1.64279e-10
-0.00108591
-1.55924e-10
-0.00108591
-1.47328e-10
-0.00108591
-1.385e-10
-0.00108591
-1.29457e-10
-0.00108591
-1.20223e-10
-0.00108591
-1.10816e-10
-0.00108591
-1.01241e-10
-0.00108591
-9.15e-11
-0.00108591
-8.1607e-11
-0.00108591
-7.16033e-11
-0.00108591
-6.15386e-11
-0.00108591
-5.13973e-11
-0.00108591
-4.10778e-11
-0.00108591
-3.06104e-11
-0.00108591
-2.03284e-11
-0.00108591
-1.02317e-11
-0.00108591
-0.00108591
-8.42687e-12
-0.00108899
-1.68446e-11
-0.00108899
-2.51018e-11
-0.00108899
-3.32635e-11
-0.00108899
-4.13265e-11
-0.00108899
-4.9331e-11
-0.00108899
-5.72614e-11
-0.00108899
-6.51528e-11
-0.00108899
-7.29506e-11
-0.00108899
-8.07237e-11
-0.00108899
-8.83719e-11
-0.00108899
-9.59949e-11
-0.00108899
-1.03517e-10
-0.00108899
-1.10906e-10
-0.00108899
-1.18262e-10
-0.00108899
-1.255e-10
-0.00108899
-1.32622e-10
-0.00108899
-1.39624e-10
-0.00108899
-1.46543e-10
-0.00108899
-1.53306e-10
-0.00108899
-1.59926e-10
-0.00108899
-1.66454e-10
-0.00108899
-1.72788e-10
-0.00108899
-1.79012e-10
-0.00108899
-1.8512e-10
-0.00108899
-1.91025e-10
-0.00108899
-1.96831e-10
-0.00108899
-2.02498e-10
-0.00108899
-2.07972e-10
-0.00108899
-2.13341e-10
-0.00108899
-2.18544e-10
-0.00108899
-2.23517e-10
-0.00108899
-2.28366e-10
-0.00108899
-2.33093e-10
-0.00108899
-2.37578e-10
-0.00108899
-2.41847e-10
-0.00108899
-2.45969e-10
-0.00108899
-2.49903e-10
-0.00108899
-2.53613e-10
-0.00108899
-2.57142e-10
-0.00108899
-2.60479e-10
-0.00108899
-2.63565e-10
-0.00108899
-2.66417e-10
-0.00108899
-2.691e-10
-0.00108899
-2.71602e-10
-0.00108899
-2.73853e-10
-0.00108899
-2.7584e-10
-0.00108899
-2.77619e-10
-0.00108899
-2.79203e-10
-0.00108899
-2.80542e-10
-0.00108899
-2.816e-10
-0.00108899
-2.82405e-10
-0.00108899
-2.82992e-10
-0.00108899
-2.83342e-10
-0.00108899
-2.83409e-10
-0.00108899
-2.83176e-10
-0.00108899
-2.8267e-10
-0.00108899
-2.81912e-10
-0.00108899
-2.80885e-10
-0.00108899
-2.79552e-10
-0.00108899
-2.77901e-10
-0.00108899
-2.75953e-10
-0.00108899
-2.73726e-10
-0.00108899
-2.71213e-10
-0.00108899
-2.68387e-10
-0.00108899
-2.6523e-10
-0.00108899
-2.61748e-10
-0.00108899
-2.57964e-10
-0.00108899
-2.53888e-10
-0.00108899
-2.49511e-10
-0.00108899
-2.44813e-10
-0.00108899
-2.39781e-10
-0.00108899
-2.34424e-10
-0.00108899
-2.28762e-10
-0.00108899
-2.22812e-10
-0.00108899
-2.16576e-10
-0.00108899
-2.10047e-10
-0.00108899
-2.0322e-10
-0.00108899
-1.96103e-10
-0.00108899
-1.88712e-10
-0.00108899
-1.81066e-10
-0.00108899
-1.73174e-10
-0.00108899
-1.65038e-10
-0.00108899
-1.56655e-10
-0.00108899
-1.48027e-10
-0.00108899
-1.39162e-10
-0.00108899
-1.30078e-10
-0.00108899
-1.20801e-10
-0.00108899
-1.11353e-10
-0.00108899
-1.01753e-10
-0.00108899
-9.19987e-11
-0.00108899
-8.20766e-11
-0.00108899
-7.20016e-11
-0.00108899
-6.18339e-11
-0.00108899
-5.16561e-11
-0.00108899
-4.14255e-11
-0.00108899
-3.1022e-11
-0.00108899
-2.05979e-11
-0.00108899
-1.03182e-11
-0.00108899
-0.00108899
-8.31749e-12
-0.00109262
-1.66912e-11
-0.00109262
-2.49772e-11
-0.00109262
-3.31708e-11
-0.00109262
-4.13066e-11
-0.00109262
-4.93821e-11
-0.00109262
-5.73735e-11
-0.00109262
-6.53004e-11
-0.00109262
-7.3132e-11
-0.00109262
-8.09282e-11
-0.00109262
-8.86395e-11
-0.00109262
-9.62297e-11
-0.00109262
-1.03795e-10
-0.00109262
-1.11252e-10
-0.00109262
-1.18596e-10
-0.00109262
-1.2585e-10
-0.00109262
-1.33021e-10
-0.00109262
-1.40036e-10
-0.00109262
-1.46969e-10
-0.00109262
-1.53755e-10
-0.00109262
-1.60385e-10
-0.00109262
-1.6693e-10
-0.00109262
-1.73286e-10
-0.00109262
-1.79524e-10
-0.00109262
-1.8563e-10
-0.00109262
-1.91539e-10
-0.00109262
-1.97373e-10
-0.00109262
-2.03072e-10
-0.00109262
-2.08552e-10
-0.00109262
-2.13917e-10
-0.00109262
-2.19137e-10
-0.00109262
-2.24145e-10
-0.00109262
-2.29025e-10
-0.00109262
-2.33761e-10
-0.00109262
-2.38245e-10
-0.00109262
-2.42524e-10
-0.00109262
-2.46675e-10
-0.00109262
-2.50639e-10
-0.00109262
-2.54366e-10
-0.00109262
-2.57898e-10
-0.00109262
-2.61238e-10
-0.00109262
-2.64339e-10
-0.00109262
-2.67214e-10
-0.00109262
-2.69923e-10
-0.00109262
-2.72444e-10
-0.00109262
-2.74705e-10
-0.00109262
-2.76703e-10
-0.00109262
-2.78502e-10
-0.00109262
-2.80114e-10
-0.00109262
-2.8148e-10
-0.00109262
-2.82558e-10
-0.00109262
-2.83377e-10
-0.00109262
-2.83979e-10
-0.00109262
-2.84352e-10
-0.00109262
-2.84445e-10
-0.00109262
-2.84236e-10
-0.00109262
-2.83747e-10
-0.00109262
-2.83001e-10
-0.00109262
-2.81985e-10
-0.00109262
-2.80667e-10
-0.00109262
-2.79035e-10
-0.00109262
-2.77103e-10
-0.00109262
-2.74888e-10
-0.00109262
-2.7238e-10
-0.00109262
-2.69556e-10
-0.00109262
-2.66402e-10
-0.00109262
-2.62924e-10
-0.00109262
-2.59144e-10
-0.00109262
-2.55069e-10
-0.00109262
-2.50688e-10
-0.00109262
-2.45979e-10
-0.00109262
-2.40933e-10
-0.00109262
-2.35561e-10
-0.00109262
-2.29885e-10
-0.00109262
-2.2392e-10
-0.00109262
-2.17667e-10
-0.00109262
-2.11114e-10
-0.00109262
-2.0426e-10
-0.00109262
-1.97114e-10
-0.00109262
-1.89693e-10
-0.00109262
-1.82017e-10
-0.00109262
-1.74097e-10
-0.00109262
-1.6593e-10
-0.00109262
-1.57513e-10
-0.00109262
-1.48845e-10
-0.00109262
-1.39937e-10
-0.00109262
-1.3081e-10
-0.00109262
-1.21485e-10
-0.00109262
-1.11983e-10
-0.00109262
-1.0233e-10
-0.00109262
-9.25392e-11
-0.00109262
-8.26061e-11
-0.00109262
-7.25087e-11
-0.00109262
-6.22625e-11
-0.00109262
-5.19601e-11
-0.00109262
-4.16758e-11
-0.00109262
-3.13123e-11
-0.00109262
-2.08575e-11
-0.00109262
-1.04443e-11
-0.00109262
-0.00109262
-8.26591e-12
-0.00109681
-1.66479e-11
-0.00109681
-2.49401e-11
-0.00109681
-3.31828e-11
-0.00109681
-4.13499e-11
-0.00109681
-4.94528e-11
-0.00109681
-5.74814e-11
-0.00109681
-6.54771e-11
-0.00109681
-7.33681e-11
-0.00109681
-8.11549e-11
-0.00109681
-8.89179e-11
-0.00109681
-9.65676e-11
-0.00109681
-1.04122e-10
-0.00109681
-1.11609e-10
-0.00109681
-1.18995e-10
-0.00109681
-1.26266e-10
-0.00109681
-1.33468e-10
-0.00109681
-1.4051e-10
-0.00109681
-1.47455e-10
-0.00109681
-1.54259e-10
-0.00109681
-1.6092e-10
-0.00109681
-1.67491e-10
-0.00109681
-1.7385e-10
-0.00109681
-1.80088e-10
-0.00109681
-1.86215e-10
-0.00109681
-1.92156e-10
-0.00109681
-1.98009e-10
-0.00109681
-2.03709e-10
-0.00109681
-2.09195e-10
-0.00109681
-2.14587e-10
-0.00109681
-2.19842e-10
-0.00109681
-2.24874e-10
-0.00109681
-2.29764e-10
-0.00109681
-2.34508e-10
-0.00109681
-2.39008e-10
-0.00109681
-2.43314e-10
-0.00109681
-2.47495e-10
-0.00109681
-2.51478e-10
-0.00109681
-2.55214e-10
-0.00109681
-2.58754e-10
-0.00109681
-2.62111e-10
-0.00109681
-2.65235e-10
-0.00109681
-2.68136e-10
-0.00109681
-2.70864e-10
-0.00109681
-2.734e-10
-0.00109681
-2.75675e-10
-0.00109681
-2.77694e-10
-0.00109681
-2.79521e-10
-0.00109681
-2.81162e-10
-0.00109681
-2.82552e-10
-0.00109681
-2.83647e-10
-0.00109681
-2.84484e-10
-0.00109681
-2.8511e-10
-0.00109681
-2.85512e-10
-0.00109681
-2.85633e-10
-0.00109681
-2.85445e-10
-0.00109681
-2.84972e-10
-0.00109681
-2.84241e-10
-0.00109681
-2.83242e-10
-0.00109681
-2.81945e-10
-0.00109681
-2.80333e-10
-0.00109681
-2.78417e-10
-0.00109681
-2.7621e-10
-0.00109681
-2.73708e-10
-0.00109681
-2.7089e-10
-0.00109681
-2.67741e-10
-0.00109681
-2.6427e-10
-0.00109681
-2.60493e-10
-0.00109681
-2.56417e-10
-0.00109681
-2.52028e-10
-0.00109681
-2.47307e-10
-0.00109681
-2.42247e-10
-0.00109681
-2.3686e-10
-0.00109681
-2.3117e-10
-0.00109681
-2.25188e-10
-0.00109681
-2.18912e-10
-0.00109681
-2.12332e-10
-0.00109681
-2.05447e-10
-0.00109681
-1.98268e-10
-0.00109681
-1.90815e-10
-0.00109681
-1.83107e-10
-0.00109681
-1.75152e-10
-0.00109681
-1.66949e-10
-0.00109681
-1.5849e-10
-0.00109681
-1.49774e-10
-0.00109681
-1.40817e-10
-0.00109681
-1.31642e-10
-0.00109681
-1.2227e-10
-0.00109681
-1.12717e-10
-0.00109681
-1.02997e-10
-0.00109681
-9.31355e-11
-0.00109681
-8.31475e-11
-0.00109681
-7.30301e-11
-0.00109681
-6.27586e-11
-0.00109681
-5.23666e-11
-0.00109681
-4.19637e-11
-0.00109681
-3.15476e-11
-0.00109681
-2.10633e-11
-0.00109681
-1.05632e-11
-0.00109681
-0.00109682
-8.25968e-12
-0.00110157
-1.66305e-11
-0.00110157
-2.49564e-11
-0.00110157
-3.32251e-11
-0.00110157
-4.14234e-11
-0.00110157
-4.95949e-11
-0.00110157
-5.76558e-11
-0.00110157
-6.56571e-11
-0.00110157
-7.36028e-11
-0.00110157
-8.14611e-11
-0.00110157
-8.92215e-11
-0.00110157
-9.6926e-11
-0.00110157
-1.04508e-10
-0.00110157
-1.12014e-10
-0.00110157
-1.19443e-10
-0.00110157
-1.26747e-10
-0.00110157
-1.33965e-10
-0.00110157
-1.41026e-10
-0.00110157
-1.48006e-10
-0.00110157
-1.54846e-10
-0.00110157
-1.61523e-10
-0.00110157
-1.68097e-10
-0.00110157
-1.7447e-10
-0.00110157
-1.80738e-10
-0.00110157
-1.86893e-10
-0.00110157
-1.92845e-10
-0.00110157
-1.98703e-10
-0.00110157
-2.04418e-10
-0.00110157
-2.09931e-10
-0.00110157
-2.15354e-10
-0.00110157
-2.20634e-10
-0.00110157
-2.25679e-10
-0.00110157
-2.30582e-10
-0.00110157
-2.35346e-10
-0.00110157
-2.39875e-10
-0.00110157
-2.4421e-10
-0.00110157
-2.48412e-10
-0.00110157
-2.52409e-10
-0.00110157
-2.56156e-10
-0.00110157
-2.59715e-10
-0.00110157
-2.63098e-10
-0.00110157
-2.66247e-10
-0.00110157
-2.69168e-10
-0.00110157
-2.71912e-10
-0.00110157
-2.74466e-10
-0.00110157
-2.76765e-10
-0.00110157
-2.78812e-10
-0.00110157
-2.80668e-10
-0.00110157
-2.82335e-10
-0.00110157
-2.83747e-10
-0.00110157
-2.84864e-10
-0.00110157
-2.85725e-10
-0.00110157
-2.86382e-10
-0.00110157
-2.86815e-10
-0.00110157
-2.86962e-10
-0.00110157
-2.86795e-10
-0.00110157
-2.86339e-10
-0.00110157
-2.85627e-10
-0.00110157
-2.84651e-10
-0.00110157
-2.83378e-10
-0.00110157
-2.81785e-10
-0.00110157
-2.79882e-10
-0.00110157
-2.77685e-10
-0.00110157
-2.75191e-10
-0.00110157
-2.72381e-10
-0.00110157
-2.69242e-10
-0.00110157
-2.65777e-10
-0.00110157
-2.62001e-10
-0.00110157
-2.57921e-10
-0.00110157
-2.53523e-10
-0.00110157
-2.4879e-10
-0.00110157
-2.43717e-10
-0.00110157
-2.38316e-10
-0.00110157
-2.32609e-10
-0.00110157
-2.26605e-10
-0.00110157
-2.20302e-10
-0.00110157
-2.13692e-10
-0.00110157
-2.06773e-10
-0.00110157
-1.99559e-10
-0.00110157
-1.9207e-10
-0.00110157
-1.84326e-10
-0.00110157
-1.76334e-10
-0.00110157
-1.68088e-10
-0.00110157
-1.59582e-10
-0.00110157
-1.50814e-10
-0.00110157
-1.41799e-10
-0.00110157
-1.32564e-10
-0.00110157
-1.23137e-10
-0.00110157
-1.13535e-10
-0.00110157
-1.0376e-10
-0.00110157
-9.38229e-11
-0.00110157
-8.37462e-11
-0.00110157
-7.35585e-11
-0.00110157
-6.3253e-11
-0.00110157
-5.28144e-11
-0.00110157
-4.23124e-11
-0.00110157
-3.17972e-11
-0.00110157
-2.12467e-11
-0.00110157
-1.06681e-11
-0.00110157
-0.00110157
-8.28902e-12
-0.00110689
-1.6645e-11
-0.00110689
-2.49869e-11
-0.00110689
-3.33117e-11
-0.00110689
-4.15447e-11
-0.00110689
-4.9736e-11
-0.00110689
-5.78665e-11
-0.00110689
-6.59062e-11
-0.00110689
-7.38738e-11
-0.00110689
-8.17875e-11
-0.00110689
-8.95787e-11
-0.00110689
-9.73055e-11
-0.00110689
-1.04937e-10
-0.00110689
-1.12484e-10
-0.00110689
-1.19938e-10
-0.00110689
-1.2726e-10
-0.00110689
-1.3451e-10
-0.00110689
-1.41614e-10
-0.00110689
-1.48626e-10
-0.00110689
-1.5548e-10
-0.00110689
-1.6217e-10
-0.00110689
-1.6877e-10
-0.00110689
-1.75172e-10
-0.00110689
-1.81463e-10
-0.00110689
-1.87631e-10
-0.00110689
-1.93593e-10
-0.00110689
-1.99469e-10
-0.00110689
-2.05212e-10
-0.00110689
-2.10754e-10
-0.00110689
-2.16203e-10
-0.00110689
-2.215e-10
-0.00110689
-2.26559e-10
-0.00110689
-2.31484e-10
-0.00110689
-2.3628e-10
-0.00110689
-2.40839e-10
-0.00110689
-2.45196e-10
-0.00110689
-2.49416e-10
-0.00110689
-2.53429e-10
-0.00110689
-2.57197e-10
-0.00110689
-2.60781e-10
-0.00110689
-2.64192e-10
-0.00110689
-2.67363e-10
-0.00110689
-2.70301e-10
-0.00110689
-2.73065e-10
-0.00110689
-2.75644e-10
-0.00110689
-2.77973e-10
-0.00110689
-2.80049e-10
-0.00110689
-2.81932e-10
-0.00110689
-2.83625e-10
-0.00110689
-2.85061e-10
-0.00110689
-2.86205e-10
-0.00110689
-2.87097e-10
-0.00110689
-2.87786e-10
-0.00110689
-2.88249e-10
-0.00110689
-2.88422e-10
-0.00110689
-2.88276e-10
-0.00110689
-2.87842e-10
-0.00110689
-2.87154e-10
-0.00110689
-2.86206e-10
-0.00110689
-2.84957e-10
-0.00110689
-2.83382e-10
-0.00110689
-2.81492e-10
-0.00110689
-2.79305e-10
-0.00110689
-2.76822e-10
-0.00110689
-2.74025e-10
-0.00110689
-2.70895e-10
-0.00110689
-2.67435e-10
-0.00110689
-2.63659e-10
-0.00110689
-2.59573e-10
-0.00110689
-2.55166e-10
-0.00110689
-2.50422e-10
-0.00110689
-2.45336e-10
-0.00110689
-2.3992e-10
-0.00110689
-2.34193e-10
-0.00110689
-2.28164e-10
-0.00110689
-2.21832e-10
-0.00110689
-2.15188e-10
-0.00110689
-2.08233e-10
-0.00110689
-2.00981e-10
-0.00110689
-1.93454e-10
-0.00110689
-1.85669e-10
-0.00110689
-1.77634e-10
-0.00110689
-1.6934e-10
-0.00110689
-1.60782e-10
-0.00110689
-1.51958e-10
-0.00110689
-1.42883e-10
-0.00110689
-1.33579e-10
-0.00110689
-1.24084e-10
-0.00110689
-1.14417e-10
-0.00110689
-1.04587e-10
-0.00110689
-9.4586e-11
-0.00110689
-8.44266e-11
-0.00110689
-7.41395e-11
-0.00110689
-6.37582e-11
-0.00110689
-5.32666e-11
-0.00110689
-4.26903e-11
-0.00110689
-3.20765e-11
-0.00110689
-2.14352e-11
-0.00110689
-1.07696e-11
-0.00110689
-0.00110689
-8.29297e-12
-0.00111278
-1.67154e-11
-0.00111278
-2.50641e-11
-0.00111278
-3.34099e-11
-0.00111278
-4.17041e-11
-0.00111278
-4.99148e-11
-0.00111278
-5.80927e-11
-0.00111278
-6.61879e-11
-0.00111278
-7.4203e-11
-0.00111278
-8.2129e-11
-0.00111278
-8.99749e-11
-0.00111278
-9.77419e-11
-0.00111278
-1.05411e-10
-0.00111278
-1.12985e-10
-0.00111278
-1.20467e-10
-0.00111278
-1.2783e-10
-0.00111278
-1.35122e-10
-0.00111278
-1.42253e-10
-0.00111278
-1.49287e-10
-0.00111278
-1.56164e-10
-0.00111278
-1.62882e-10
-0.00111278
-1.69513e-10
-0.00111278
-1.75939e-10
-0.00111278
-1.82246e-10
-0.00111278
-1.88428e-10
-0.00111278
-1.94408e-10
-0.00111278
-2.00313e-10
-0.00111278
-2.06086e-10
-0.00111278
-2.11652e-10
-0.00111278
-2.1712e-10
-0.00111278
-2.22436e-10
-0.00111278
-2.27519e-10
-0.00111278
-2.32475e-10
-0.00111278
-2.37303e-10
-0.00111278
-2.41887e-10
-0.00111278
-2.46263e-10
-0.00111278
-2.50503e-10
-0.00111278
-2.5454e-10
-0.00111278
-2.58335e-10
-0.00111278
-2.61947e-10
-0.00111278
-2.65382e-10
-0.00111278
-2.68574e-10
-0.00111278
-2.71531e-10
-0.00111278
-2.74321e-10
-0.00111278
-2.76932e-10
-0.00111278
-2.79292e-10
-0.00111278
-2.81396e-10
-0.00111278
-2.83305e-10
-0.00111278
-2.85025e-10
-0.00111278
-2.86492e-10
-0.00111278
-2.87667e-10
-0.00111278
-2.88593e-10
-0.00111278
-2.89314e-10
-0.00111278
-2.89808e-10
-0.00111278
-2.90006e-10
-0.00111278
-2.89885e-10
-0.00111278
-2.89477e-10
-0.00111278
-2.88818e-10
-0.00111278
-2.87897e-10
-0.00111278
-2.86671e-10
-0.00111278
-2.85114e-10
-0.00111278
-2.83237e-10
-0.00111278
-2.81064e-10
-0.00111278
-2.78596e-10
-0.00111278
-2.75812e-10
-0.00111278
-2.72692e-10
-0.00111278
-2.69235e-10
-0.00111278
-2.65457e-10
-0.00111278
-2.61366e-10
-0.00111278
-2.56951e-10
-0.00111278
-2.52196e-10
-0.00111278
-2.47097e-10
-0.00111278
-2.41663e-10
-0.00111278
-2.35914e-10
-0.00111278
-2.29857e-10
-0.00111278
-2.23492e-10
-0.00111278
-2.16813e-10
-0.00111278
-2.0982e-10
-0.00111278
-2.02528e-10
-0.00111278
-1.94959e-10
-0.00111278
-1.8713e-10
-0.00111278
-1.79045e-10
-0.00111278
-1.70699e-10
-0.00111278
-1.62082e-10
-0.00111278
-1.53198e-10
-0.00111278
-1.4406e-10
-0.00111278
-1.34691e-10
-0.00111278
-1.25118e-10
-0.00111278
-1.15372e-10
-0.00111278
-1.05465e-10
-0.00111278
-9.53984e-11
-0.00111278
-8.51665e-11
-0.00111278
-7.47866e-11
-0.00111278
-6.43045e-11
-0.00111278
-5.37325e-11
-0.00111278
-4.30815e-11
-0.00111278
-3.2376e-11
-0.00111278
-2.16367e-11
-0.00111278
-1.08754e-11
-0.00111278
-0.00111278
-8.31411e-12
-0.00111923
-1.67556e-11
-0.00111923
-2.51726e-11
-0.00111923
-3.35342e-11
-0.00111923
-4.18757e-11
-0.00111923
-5.01429e-11
-0.00111923
-5.83542e-11
-0.00111923
-6.64865e-11
-0.00111923
-7.45468e-11
-0.00111923
-8.2525e-11
-0.00111923
-9.04122e-11
-0.00111923
-9.82131e-11
-0.00111923
-1.05915e-10
-0.00111923
-1.13526e-10
-0.00111923
-1.21049e-10
-0.00111923
-1.28452e-10
-0.00111923
-1.35777e-10
-0.00111923
-1.42935e-10
-0.00111923
-1.49998e-10
-0.00111923
-1.56906e-10
-0.00111923
-1.63657e-10
-0.00111923
-1.70315e-10
-0.00111923
-1.7676e-10
-0.00111923
-1.83084e-10
-0.00111923
-1.89288e-10
-0.00111923
-1.95295e-10
-0.00111923
-2.0123e-10
-0.00111923
-2.0703e-10
-0.00111923
-2.12615e-10
-0.00111923
-2.18104e-10
-0.00111923
-2.23446e-10
-0.00111923
-2.28559e-10
-0.00111923
-2.33547e-10
-0.00111923
-2.38404e-10
-0.00111923
-2.43011e-10
-0.00111923
-2.47408e-10
-0.00111923
-2.51673e-10
-0.00111923
-2.55741e-10
-0.00111923
-2.59564e-10
-0.00111923
-2.63203e-10
-0.00111923
-2.66661e-10
-0.00111923
-2.69874e-10
-0.00111923
-2.72858e-10
-0.00111923
-2.75679e-10
-0.00111923
-2.78323e-10
-0.00111923
-2.80713e-10
-0.00111923
-2.82845e-10
-0.00111923
-2.84781e-10
-0.00111923
-2.86533e-10
-0.00111923
-2.88035e-10
-0.00111923
-2.89246e-10
-0.00111923
-2.90205e-10
-0.00111923
-2.90958e-10
-0.00111923
-2.91481e-10
-0.00111923
-2.91709e-10
-0.00111923
-2.91617e-10
-0.00111923
-2.91239e-10
-0.00111923
-2.9061e-10
-0.00111923
-2.89717e-10
-0.00111923
-2.88513e-10
-0.00111923
-2.86974e-10
-0.00111923
-2.85113e-10
-0.00111923
-2.82957e-10
-0.00111923
-2.80506e-10
-0.00111923
-2.77736e-10
-0.00111923
-2.74623e-10
-0.00111923
-2.71169e-10
-0.00111923
-2.67389e-10
-0.00111923
-2.63293e-10
-0.00111923
-2.5887e-10
-0.00111923
-2.54105e-10
-0.00111923
-2.48992e-10
-0.00111923
-2.43539e-10
-0.00111923
-2.37764e-10
-0.00111923
-2.31677e-10
-0.00111923
-2.25277e-10
-0.00111923
-2.1856e-10
-0.00111923
-2.11527e-10
-0.00111923
-2.04193e-10
-0.00111923
-1.96579e-10
-0.00111923
-1.88701e-10