/*--------------------------------*- C++ -*----------------------------------*\
| =========                 |                                                 |
| \\      /  F ield         | OpenFOAM: The Open Source CFD Toolbox           |
|  \\    /   O peration     | Version:  2.3.x                                 |
|   \\  /    A nd           | Web:      www.OpenFOAM.org                      |
|    \\/     M anipulation  |                                                 |
\*---------------------------------------------------------------------------*/
FoamFile
{
    version     2.0;
    format      ascii;
    class       volVectorField;
    location    "0.04";
    object      U;
}
// * * * * * * * * * * * * * * * * * * * * * * * * * * * * * * * * * * * * * //

dimensions      [0 1 -1 0 0 0 0];

internalField   nonuniform List<vector> 
50000
(
(-6.6488e-12 -0.00106482 0)
(-1.6371e-11 -0.00106482 0)
(-2.2785e-11 -0.00106482 0)
(-2.97444e-11 -0.00106482 0)
(-3.72172e-11 -0.00106482 0)
(-4.48779e-11 -0.00106481 0)
(-5.25615e-11 -0.00106481 0)
(-6.02084e-11 -0.00106481 0)
(-6.78203e-11 -0.00106481 0)
(-7.53957e-11 -0.00106481 0)
(-8.2917e-11 -0.00106481 0)
(-9.03881e-11 -0.00106481 0)
(-9.77758e-11 -0.00106481 0)
(-1.05072e-10 -0.00106482 0)
(-1.12289e-10 -0.00106482 0)
(-1.19407e-10 -0.00106482 0)
(-1.26429e-10 -0.00106482 0)
(-1.33351e-10 -0.00106482 0)
(-1.40171e-10 -0.00106482 0)
(-1.4686e-10 -0.00106482 0)
(-1.53424e-10 -0.00106482 0)
(-1.59877e-10 -0.00106482 0)
(-1.66188e-10 -0.00106482 0)
(-1.72368e-10 -0.00106482 0)
(-1.78409e-10 -0.00106482 0)
(-1.84296e-10 -0.00106482 0)
(-1.90075e-10 -0.00106482 0)
(-1.95698e-10 -0.00106482 0)
(-2.0113e-10 -0.00106482 0)
(-2.06462e-10 -0.00106482 0)
(-2.11653e-10 -0.00106482 0)
(-2.16597e-10 -0.00106482 0)
(-2.21387e-10 -0.00106482 0)
(-2.26093e-10 -0.00106482 0)
(-2.30593e-10 -0.00106482 0)
(-2.34843e-10 -0.00106482 0)
(-2.38949e-10 -0.00106482 0)
(-2.42914e-10 -0.00106482 0)
(-2.46643e-10 -0.00106482 0)
(-2.50146e-10 -0.00106482 0)
(-2.53493e-10 -0.00106482 0)
(-2.56655e-10 -0.00106482 0)
(-2.59563e-10 -0.00106482 0)
(-2.6224e-10 -0.00106482 0)
(-2.64743e-10 -0.00106482 0)
(-2.67052e-10 -0.00106482 0)
(-2.69109e-10 -0.00106482 0)
(-2.70911e-10 -0.00106482 0)
(-2.72502e-10 -0.00106482 0)
(-2.73889e-10 -0.00106482 0)
(-2.75032e-10 -0.00106482 0)
(-2.75907e-10 -0.00106482 0)
(-2.7653e-10 -0.00106482 0)
(-2.76922e-10 -0.00106482 0)
(-2.77069e-10 -0.00106482 0)
(-2.76944e-10 -0.00106482 0)
(-2.7654e-10 -0.00106482 0)
(-2.75869e-10 -0.00106482 0)
(-2.74935e-10 -0.00106482 0)
(-2.73724e-10 -0.00106482 0)
(-2.72219e-10 -0.00106482 0)
(-2.70418e-10 -0.00106482 0)
(-2.68332e-10 -0.00106482 0)
(-2.65964e-10 -0.00106482 0)
(-2.63303e-10 -0.00106482 0)
(-2.60335e-10 -0.00106482 0)
(-2.57055e-10 -0.00106482 0)
(-2.53472e-10 -0.00106482 0)
(-2.49598e-10 -0.00106482 0)
(-2.45432e-10 -0.00106482 0)
(-2.40963e-10 -0.00106482 0)
(-2.36182e-10 -0.00106482 0)
(-2.31091e-10 -0.00106482 0)
(-2.25699e-10 -0.00106482 0)
(-2.20018e-10 -0.00106482 0)
(-2.14054e-10 -0.00106482 0)
(-2.07806e-10 -0.00106482 0)
(-2.01272e-10 -0.00106482 0)
(-1.94457e-10 -0.00106482 0)
(-1.87371e-10 -0.00106482 0)
(-1.80028e-10 -0.00106482 0)
(-1.7244e-10 -0.00106482 0)
(-1.6461e-10 -0.00106482 0)
(-1.5654e-10 -0.00106482 0)
(-1.48234e-10 -0.00106482 0)
(-1.39701e-10 -0.00106482 0)
(-1.30953e-10 -0.00106482 0)
(-1.22007e-10 -0.00106482 0)
(-1.12879e-10 -0.00106482 0)
(-1.0358e-10 -0.00106482 0)
(-9.41165e-11 -0.00106482 0)
(-8.44931e-11 -0.00106482 0)
(-7.47134e-11 -0.00106482 0)
(-6.47972e-11 -0.00106482 0)
(-5.47909e-11 -0.00106482 0)
(-4.47287e-11 -0.00106482 0)
(-3.45172e-11 -0.00106482 0)
(-2.38128e-11 -0.00106482 0)
(-1.20883e-11 -0.00106482 0)
(-2.92832e-12 -0.00106482 0)
(-6.28138e-12 -0.00106536 0)
(-1.57825e-11 -0.00106536 0)
(-2.24169e-11 -0.00106536 0)
(-2.95462e-11 -0.00106536 0)
(-3.71312e-11 -0.00106536 0)
(-4.48468e-11 -0.00106536 0)
(-5.25562e-11 -0.00106536 0)
(-6.02234e-11 -0.00106536 0)
(-6.78465e-11 -0.00106536 0)
(-7.54248e-11 -0.00106536 0)
(-8.29479e-11 -0.00106536 0)
(-9.04208e-11 -0.00106536 0)
(-9.78195e-11 -0.00106536 0)
(-1.05126e-10 -0.00106536 0)
(-1.12345e-10 -0.00106536 0)
(-1.19469e-10 -0.00106536 0)
(-1.26503e-10 -0.00106536 0)
(-1.33422e-10 -0.00106536 0)
(-1.4024e-10 -0.00106536 0)
(-1.46939e-10 -0.00106536 0)
(-1.53507e-10 -0.00106536 0)
(-1.59967e-10 -0.00106536 0)
(-1.66268e-10 -0.00106536 0)
(-1.72444e-10 -0.00106536 0)
(-1.78516e-10 -0.00106536 0)
(-1.84394e-10 -0.00106536 0)
(-1.90139e-10 -0.00106536 0)
(-1.95798e-10 -0.00106536 0)
(-2.01263e-10 -0.00106536 0)
(-2.06554e-10 -0.00106536 0)
(-2.11726e-10 -0.00106536 0)
(-2.16717e-10 -0.00106536 0)
(-2.21526e-10 -0.00106536 0)
(-2.26198e-10 -0.00106536 0)
(-2.3069e-10 -0.00106536 0)
(-2.34976e-10 -0.00106536 0)
(-2.39095e-10 -0.00106536 0)
(-2.43033e-10 -0.00106536 0)
(-2.46753e-10 -0.00106536 0)
(-2.50287e-10 -0.00106536 0)
(-2.53653e-10 -0.00106536 0)
(-2.56792e-10 -0.00106536 0)
(-2.5968e-10 -0.00106536 0)
(-2.62376e-10 -0.00106536 0)
(-2.64912e-10 -0.00106536 0)
(-2.6722e-10 -0.00106536 0)
(-2.69251e-10 -0.00106536 0)
(-2.71045e-10 -0.00106536 0)
(-2.72661e-10 -0.00106536 0)
(-2.74073e-10 -0.00106536 0)
(-2.75215e-10 -0.00106536 0)
(-2.76073e-10 -0.00106536 0)
(-2.76691e-10 -0.00106536 0)
(-2.77098e-10 -0.00106536 0)
(-2.77264e-10 -0.00106536 0)
(-2.77145e-10 -0.00106536 0)
(-2.76735e-10 -0.00106536 0)
(-2.76059e-10 -0.00106536 0)
(-2.7513e-10 -0.00106536 0)
(-2.7393e-10 -0.00106536 0)
(-2.72431e-10 -0.00106536 0)
(-2.7063e-10 -0.00106536 0)
(-2.68542e-10 -0.00106536 0)
(-2.66173e-10 -0.00106536 0)
(-2.63516e-10 -0.00106536 0)
(-2.60551e-10 -0.00106536 0)
(-2.57272e-10 -0.00106536 0)
(-2.53689e-10 -0.00106536 0)
(-2.49814e-10 -0.00106536 0)
(-2.45647e-10 -0.00106536 0)
(-2.41176e-10 -0.00106536 0)
(-2.36394e-10 -0.00106536 0)
(-2.31301e-10 -0.00106536 0)
(-2.25907e-10 -0.00106536 0)
(-2.20223e-10 -0.00106536 0)
(-2.14255e-10 -0.00106536 0)
(-2.08001e-10 -0.00106536 0)
(-2.01462e-10 -0.00106536 0)
(-1.94641e-10 -0.00106536 0)
(-1.8755e-10 -0.00106536 0)
(-1.80204e-10 -0.00106536 0)
(-1.72611e-10 -0.00106536 0)
(-1.64776e-10 -0.00106536 0)
(-1.56699e-10 -0.00106536 0)
(-1.48385e-10 -0.00106536 0)
(-1.39844e-10 -0.00106536 0)
(-1.31088e-10 -0.00106536 0)
(-1.22135e-10 -0.00106536 0)
(-1.12999e-10 -0.00106536 0)
(-1.03694e-10 -0.00106536 0)
(-9.42298e-11 -0.00106536 0)
(-8.46082e-11 -0.00106536 0)
(-7.48252e-11 -0.00106536 0)
(-6.4885e-11 -0.00106536 0)
(-5.48304e-11 -0.00106536 0)
(-4.47524e-11 -0.00106536 0)
(-3.46721e-11 -0.00106536 0)
(-2.42755e-11 -0.00106536 0)
(-1.28611e-11 -0.00106536 0)
(-3.38482e-12 -0.00106536 0)
(-5.02088e-12 -0.00106646 0)
(-1.40657e-11 -0.00106646 0)
(-2.17965e-11 -0.00106646 0)
(-2.93341e-11 -0.00106646 0)
(-3.70351e-11 -0.00106646 0)
(-4.47925e-11 -0.00106646 0)
(-5.25395e-11 -0.00106646 0)
(-6.02426e-11 -0.00106646 0)
(-6.78939e-11 -0.00106646 0)
(-7.54897e-11 -0.00106646 0)
(-8.30264e-11 -0.00106646 0)
(-9.05e-11 -0.00106646 0)
(-9.78988e-11 -0.00106646 0)
(-1.05224e-10 -0.00106646 0)
(-1.1246e-10 -0.00106646 0)
(-1.1959e-10 -0.00106646 0)
(-1.26634e-10 -0.00106646 0)
(-1.3356e-10 -0.00106646 0)
(-1.40387e-10 -0.00106646 0)
(-1.47102e-10 -0.00106646 0)
(-1.53656e-10 -0.00106646 0)
(-1.60126e-10 -0.00106646 0)
(-1.66462e-10 -0.00106646 0)
(-1.72616e-10 -0.00106646 0)
(-1.78668e-10 -0.00106646 0)
(-1.84585e-10 -0.00106646 0)
(-1.90346e-10 -0.00106646 0)
(-1.95977e-10 -0.00106646 0)
(-2.01445e-10 -0.00106646 0)
(-2.06763e-10 -0.00106646 0)
(-2.1194e-10 -0.00106646 0)
(-2.16924e-10 -0.00106646 0)
(-2.21742e-10 -0.00106646 0)
(-2.26432e-10 -0.00106646 0)
(-2.30932e-10 -0.00106646 0)
(-2.35216e-10 -0.00106646 0)
(-2.39333e-10 -0.00106646 0)
(-2.4328e-10 -0.00106646 0)
(-2.47021e-10 -0.00106646 0)
(-2.50564e-10 -0.00106646 0)
(-2.53917e-10 -0.00106646 0)
(-2.57047e-10 -0.00106646 0)
(-2.59953e-10 -0.00106646 0)
(-2.62678e-10 -0.00106646 0)
(-2.65216e-10 -0.00106646 0)
(-2.67504e-10 -0.00106646 0)
(-2.69528e-10 -0.00106646 0)
(-2.71349e-10 -0.00106646 0)
(-2.72996e-10 -0.00106646 0)
(-2.74415e-10 -0.00106646 0)
(-2.75542e-10 -0.00106646 0)
(-2.76394e-10 -0.00106646 0)
(-2.77031e-10 -0.00106646 0)
(-2.77465e-10 -0.00106646 0)
(-2.77643e-10 -0.00106646 0)
(-2.77521e-10 -0.00106646 0)
(-2.77106e-10 -0.00106646 0)
(-2.76437e-10 -0.00106646 0)
(-2.75524e-10 -0.00106646 0)
(-2.74336e-10 -0.00106646 0)
(-2.72841e-10 -0.00106646 0)
(-2.71038e-10 -0.00106646 0)
(-2.68949e-10 -0.00106646 0)
(-2.66587e-10 -0.00106646 0)
(-2.63936e-10 -0.00106646 0)
(-2.60976e-10 -0.00106646 0)
(-2.57697e-10 -0.00106646 0)
(-2.54112e-10 -0.00106646 0)
(-2.50234e-10 -0.00106646 0)
(-2.46066e-10 -0.00106646 0)
(-2.41596e-10 -0.00106646 0)
(-2.36812e-10 -0.00106646 0)
(-2.31715e-10 -0.00106646 0)
(-2.26314e-10 -0.00106646 0)
(-2.20621e-10 -0.00106646 0)
(-2.14644e-10 -0.00106646 0)
(-2.08383e-10 -0.00106646 0)
(-2.01836e-10 -0.00106646 0)
(-1.95007e-10 -0.00106646 0)
(-1.87906e-10 -0.00106646 0)
(-1.80549e-10 -0.00106646 0)
(-1.72945e-10 -0.00106646 0)
(-1.65098e-10 -0.00106646 0)
(-1.57009e-10 -0.00106646 0)
(-1.48683e-10 -0.00106646 0)
(-1.40129e-10 -0.00106646 0)
(-1.31359e-10 -0.00106646 0)
(-1.2239e-10 -0.00106646 0)
(-1.13237e-10 -0.00106646 0)
(-1.03915e-10 -0.00106646 0)
(-9.44373e-11 -0.00106646 0)
(-8.48167e-11 -0.00106646 0)
(-7.50546e-11 -0.00106646 0)
(-6.51313e-11 -0.00106646 0)
(-5.50342e-11 -0.00106646 0)
(-4.48373e-11 -0.00106646 0)
(-3.47227e-11 -0.00106646 0)
(-2.47234e-11 -0.00106646 0)
(-1.45635e-11 -0.00106646 0)
(-4.69619e-12 -0.00106646 0)
(-4.60391e-12 -0.00106811 0)
(-1.33527e-11 -0.00106811 0)
(-2.13889e-11 -0.00106811 0)
(-2.91566e-11 -0.00106811 0)
(-3.69421e-11 -0.00106811 0)
(-4.47477e-11 -0.00106811 0)
(-5.25286e-11 -0.00106811 0)
(-6.02696e-11 -0.00106811 0)
(-6.79596e-11 -0.00106811 0)
(-7.5586e-11 -0.00106811 0)
(-8.31377e-11 -0.00106811 0)
(-9.06281e-11 -0.00106811 0)
(-9.80389e-11 -0.00106811 0)
(-1.05369e-10 -0.00106811 0)
(-1.12622e-10 -0.00106811 0)
(-1.19768e-10 -0.00106811 0)
(-1.26833e-10 -0.00106811 0)
(-1.33775e-10 -0.00106811 0)
(-1.40589e-10 -0.00106811 0)
(-1.47326e-10 -0.00106811 0)
(-1.53917e-10 -0.00106811 0)
(-1.60365e-10 -0.00106811 0)
(-1.66692e-10 -0.00106811 0)
(-1.72885e-10 -0.00106811 0)
(-1.78946e-10 -0.00106811 0)
(-1.84843e-10 -0.00106811 0)
(-1.90614e-10 -0.00106811 0)
(-1.96268e-10 -0.00106811 0)
(-2.01739e-10 -0.00106811 0)
(-2.07055e-10 -0.00106811 0)
(-2.12242e-10 -0.00106811 0)
(-2.17242e-10 -0.00106811 0)
(-2.22075e-10 -0.00106811 0)
(-2.26775e-10 -0.00106811 0)
(-2.31275e-10 -0.00106811 0)
(-2.35562e-10 -0.00106811 0)
(-2.39698e-10 -0.00106811 0)
(-2.43668e-10 -0.00106811 0)
(-2.47407e-10 -0.00106811 0)
(-2.50939e-10 -0.00106811 0)
(-2.54299e-10 -0.00106811 0)
(-2.57457e-10 -0.00106811 0)
(-2.60382e-10 -0.00106811 0)
(-2.631e-10 -0.00106811 0)
(-2.65625e-10 -0.00106811 0)
(-2.67922e-10 -0.00106811 0)
(-2.69976e-10 -0.00106811 0)
(-2.71822e-10 -0.00106811 0)
(-2.73475e-10 -0.00106811 0)
(-2.74887e-10 -0.00106811 0)
(-2.76017e-10 -0.00106811 0)
(-2.76889e-10 -0.00106811 0)
(-2.77551e-10 -0.00106811 0)
(-2.78001e-10 -0.00106811 0)
(-2.78183e-10 -0.00106811 0)
(-2.78062e-10 -0.00106811 0)
(-2.77656e-10 -0.00106811 0)
(-2.77004e-10 -0.00106811 0)
(-2.76107e-10 -0.00106811 0)
(-2.74928e-10 -0.00106811 0)
(-2.73434e-10 -0.00106811 0)
(-2.71633e-10 -0.00106811 0)
(-2.6955e-10 -0.00106811 0)
(-2.67198e-10 -0.00106811 0)
(-2.64557e-10 -0.00106811 0)
(-2.61599e-10 -0.00106811 0)
(-2.58318e-10 -0.00106811 0)
(-2.54729e-10 -0.00106811 0)
(-2.5085e-10 -0.00106811 0)
(-2.46684e-10 -0.00106811 0)
(-2.42214e-10 -0.00106811 0)
(-2.37428e-10 -0.00106811 0)
(-2.32321e-10 -0.00106811 0)
(-2.26907e-10 -0.00106811 0)
(-2.21203e-10 -0.00106811 0)
(-2.15216e-10 -0.00106811 0)
(-2.08947e-10 -0.00106811 0)
(-2.0239e-10 -0.00106811 0)
(-1.95547e-10 -0.00106811 0)
(-1.8843e-10 -0.00106811 0)
(-1.81055e-10 -0.00106811 0)
(-1.73434e-10 -0.00106811 0)
(-1.65571e-10 -0.00106811 0)
(-1.57467e-10 -0.00106811 0)
(-1.49124e-10 -0.00106811 0)
(-1.40549e-10 -0.00106811 0)
(-1.31757e-10 -0.00106811 0)
(-1.22764e-10 -0.00106811 0)
(-1.1359e-10 -0.00106811 0)
(-1.04243e-10 -0.00106811 0)
(-9.47357e-11 -0.00106811 0)
(-8.50874e-11 -0.00106811 0)
(-7.53248e-11 -0.00106811 0)
(-6.54521e-11 -0.00106811 0)
(-5.54244e-11 -0.00106811 0)
(-4.52013e-11 -0.00106811 0)
(-3.49202e-11 -0.00106811 0)
(-2.48578e-11 -0.00106811 0)
(-1.49627e-11 -0.00106811 0)
(-5.00464e-12 -0.00106811 0)
(-4.33225e-12 -0.00107031 0)
(-1.28309e-11 -0.00107031 0)
(-2.10197e-11 -0.00107031 0)
(-2.89886e-11 -0.00107031 0)
(-3.68784e-11 -0.00107031 0)
(-4.47362e-11 -0.00107031 0)
(-5.25519e-11 -0.00107031 0)
(-6.03231e-11 -0.00107031 0)
(-6.80378e-11 -0.00107031 0)
(-7.57036e-11 -0.00107031 0)
(-8.32907e-11 -0.00107031 0)
(-9.07979e-11 -0.00107031 0)
(-9.8227e-11 -0.00107031 0)
(-1.0557e-10 -0.00107031 0)
(-1.12851e-10 -0.00107031 0)
(-1.20011e-10 -0.00107031 0)
(-1.27067e-10 -0.00107031 0)
(-1.34047e-10 -0.00107031 0)
(-1.40898e-10 -0.00107031 0)
(-1.47616e-10 -0.00107031 0)
(-1.54212e-10 -0.00107031 0)
(-1.60697e-10 -0.00107031 0)
(-1.67031e-10 -0.00107031 0)
(-1.73215e-10 -0.00107031 0)
(-1.79287e-10 -0.00107031 0)
(-1.85202e-10 -0.00107031 0)
(-1.90979e-10 -0.00107031 0)
(-1.96638e-10 -0.00107031 0)
(-2.02115e-10 -0.00107031 0)
(-2.07442e-10 -0.00107031 0)
(-2.12651e-10 -0.00107031 0)
(-2.17669e-10 -0.00107031 0)
(-2.22505e-10 -0.00107031 0)
(-2.27206e-10 -0.00107031 0)
(-2.31724e-10 -0.00107031 0)
(-2.36039e-10 -0.00107031 0)
(-2.40189e-10 -0.00107031 0)
(-2.44151e-10 -0.00107031 0)
(-2.47889e-10 -0.00107031 0)
(-2.51443e-10 -0.00107031 0)
(-2.54833e-10 -0.00107031 0)
(-2.58001e-10 -0.00107031 0)
(-2.60917e-10 -0.00107031 0)
(-2.63631e-10 -0.00107031 0)
(-2.66174e-10 -0.00107031 0)
(-2.685e-10 -0.00107031 0)
(-2.70575e-10 -0.00107031 0)
(-2.72427e-10 -0.00107031 0)
(-2.74082e-10 -0.00107031 0)
(-2.75504e-10 -0.00107031 0)
(-2.76655e-10 -0.00107031 0)
(-2.7755e-10 -0.00107031 0)
(-2.7823e-10 -0.00107031 0)
(-2.7869e-10 -0.00107031 0)
(-2.78881e-10 -0.00107031 0)
(-2.78771e-10 -0.00107031 0)
(-2.78383e-10 -0.00107031 0)
(-2.77749e-10 -0.00107031 0)
(-2.76866e-10 -0.00107031 0)
(-2.75693e-10 -0.00107031 0)
(-2.74204e-10 -0.00107031 0)
(-2.7241e-10 -0.00107031 0)
(-2.7034e-10 -0.00107031 0)
(-2.68e-10 -0.00107031 0)
(-2.65365e-10 -0.00107031 0)
(-2.62407e-10 -0.00107031 0)
(-2.59124e-10 -0.00107031 0)
(-2.55534e-10 -0.00107031 0)
(-2.51657e-10 -0.00107031 0)
(-2.47493e-10 -0.00107031 0)
(-2.43023e-10 -0.00107031 0)
(-2.38228e-10 -0.00107031 0)
(-2.33109e-10 -0.00107031 0)
(-2.27681e-10 -0.00107031 0)
(-2.21964e-10 -0.00107031 0)
(-2.15967e-10 -0.00107031 0)
(-2.09687e-10 -0.00107031 0)
(-2.03115e-10 -0.00107031 0)
(-1.96253e-10 -0.00107031 0)
(-1.89114e-10 -0.00107031 0)
(-1.81716e-10 -0.00107031 0)
(-1.74074e-10 -0.00107031 0)
(-1.66191e-10 -0.00107031 0)
(-1.58067e-10 -0.00107031 0)
(-1.49701e-10 -0.00107031 0)
(-1.41098e-10 -0.00107031 0)
(-1.32274e-10 -0.00107031 0)
(-1.23249e-10 -0.00107031 0)
(-1.14047e-10 -0.00107031 0)
(-1.04679e-10 -0.00107031 0)
(-9.51461e-11 -0.00107031 0)
(-8.54538e-11 -0.00107031 0)
(-7.563e-11 -0.00107031 0)
(-6.5726e-11 -0.00107031 0)
(-5.57582e-11 -0.00107031 0)
(-4.56499e-11 -0.00107031 0)
(-3.53635e-11 -0.00107031 0)
(-2.5115e-11 -0.00107031 0)
(-1.50719e-11 -0.00107031 0)
(-5.04827e-12 -0.00107032 0)
(-4.17125e-12 -0.00107307 0)
(-1.24979e-11 -0.00107307 0)
(-2.07293e-11 -0.00107307 0)
(-2.88237e-11 -0.00107307 0)
(-3.68234e-11 -0.00107307 0)
(-4.47512e-11 -0.00107307 0)
(-5.26127e-11 -0.00107307 0)
(-6.04192e-11 -0.00107307 0)
(-6.8163e-11 -0.00107307 0)
(-7.58488e-11 -0.00107307 0)
(-8.34601e-11 -0.00107307 0)
(-9.0996e-11 -0.00107307 0)
(-9.84695e-11 -0.00107307 0)
(-1.0583e-10 -0.00107307 0)
(-1.13105e-10 -0.00107307 0)
(-1.20309e-10 -0.00107307 0)
(-1.27399e-10 -0.00107307 0)
(-1.34369e-10 -0.00107307 0)
(-1.41239e-10 -0.00107307 0)
(-1.47992e-10 -0.00107307 0)
(-1.54597e-10 -0.00107307 0)
(-1.61087e-10 -0.00107307 0)
(-1.67434e-10 -0.00107307 0)
(-1.73631e-10 -0.00107307 0)
(-1.79716e-10 -0.00107307 0)
(-1.85641e-10 -0.00107307 0)
(-1.91423e-10 -0.00107307 0)
(-1.97087e-10 -0.00107307 0)
(-2.02583e-10 -0.00107307 0)
(-2.07937e-10 -0.00107307 0)
(-2.13156e-10 -0.00107307 0)
(-2.18173e-10 -0.00107307 0)
(-2.23022e-10 -0.00107307 0)
(-2.27754e-10 -0.00107307 0)
(-2.32299e-10 -0.00107307 0)
(-2.36617e-10 -0.00107307 0)
(-2.40763e-10 -0.00107307 0)
(-2.44737e-10 -0.00107307 0)
(-2.48504e-10 -0.00107307 0)
(-2.52082e-10 -0.00107307 0)
(-2.5548e-10 -0.00107307 0)
(-2.58646e-10 -0.00107307 0)
(-2.61564e-10 -0.00107307 0)
(-2.64298e-10 -0.00107307 0)
(-2.66868e-10 -0.00107307 0)
(-2.69214e-10 -0.00107307 0)
(-2.71298e-10 -0.00107307 0)
(-2.73158e-10 -0.00107307 0)
(-2.74826e-10 -0.00107307 0)
(-2.76272e-10 -0.00107307 0)
(-2.77447e-10 -0.00107307 0)
(-2.78362e-10 -0.00107307 0)
(-2.79056e-10 -0.00107307 0)
(-2.79528e-10 -0.00107307 0)
(-2.79735e-10 -0.00107307 0)
(-2.79646e-10 -0.00107307 0)
(-2.79278e-10 -0.00107307 0)
(-2.78661e-10 -0.00107307 0)
(-2.77789e-10 -0.00107307 0)
(-2.76624e-10 -0.00107307 0)
(-2.75145e-10 -0.00107307 0)
(-2.73366e-10 -0.00107307 0)
(-2.7131e-10 -0.00107307 0)
(-2.6898e-10 -0.00107307 0)
(-2.6635e-10 -0.00107307 0)
(-2.63392e-10 -0.00107307 0)
(-2.60109e-10 -0.00107307 0)
(-2.56521e-10 -0.00107307 0)
(-2.52648e-10 -0.00107307 0)
(-2.48484e-10 -0.00107307 0)
(-2.4401e-10 -0.00107307 0)
(-2.39204e-10 -0.00107307 0)
(-2.3407e-10 -0.00107307 0)
(-2.28628e-10 -0.00107307 0)
(-2.22898e-10 -0.00107307 0)
(-2.16889e-10 -0.00107307 0)
(-2.10594e-10 -0.00107307 0)
(-2.04002e-10 -0.00107307 0)
(-1.97115e-10 -0.00107307 0)
(-1.89949e-10 -0.00107307 0)
(-1.82526e-10 -0.00107307 0)
(-1.74859e-10 -0.00107307 0)
(-1.66952e-10 -0.00107307 0)
(-1.58803e-10 -0.00107307 0)
(-1.50407e-10 -0.00107307 0)
(-1.4177e-10 -0.00107307 0)
(-1.32906e-10 -0.00107307 0)
(-1.23839e-10 -0.00107307 0)
(-1.14595e-10 -0.00107307 0)
(-1.05196e-10 -0.00107307 0)
(-9.56459e-11 -0.00107307 0)
(-8.59349e-11 -0.00107307 0)
(-7.60595e-11 -0.00107307 0)
(-6.60613e-11 -0.00107307 0)
(-5.60213e-11 -0.00107307 0)
(-4.59518e-11 -0.00107307 0)
(-3.57544e-11 -0.00107307 0)
(-2.54613e-11 -0.00107307 0)
(-1.52498e-11 -0.00107307 0)
(-5.09246e-12 -0.00107307 0)
(-4.10382e-12 -0.00107637 0)
(-1.23481e-11 -0.00107637 0)
(-2.05801e-11 -0.00107637 0)
(-2.87133e-11 -0.00107637 0)
(-3.67684e-11 -0.00107637 0)
(-4.4767e-11 -0.00107637 0)
(-5.26957e-11 -0.00107637 0)
(-6.05502e-11 -0.00107637 0)
(-6.83259e-11 -0.00107637 0)
(-7.60383e-11 -0.00107637 0)
(-8.36929e-11 -0.00107637 0)
(-9.12453e-11 -0.00107637 0)
(-9.87225e-11 -0.00107637 0)
(-1.06136e-10 -0.00107637 0)
(-1.13442e-10 -0.00107637 0)
(-1.20646e-10 -0.00107637 0)
(-1.27766e-10 -0.00107637 0)
(-1.34769e-10 -0.00107637 0)
(-1.41653e-10 -0.00107637 0)
(-1.48424e-10 -0.00107637 0)
(-1.55045e-10 -0.00107637 0)
(-1.61548e-10 -0.00107637 0)
(-1.67913e-10 -0.00107637 0)
(-1.74129e-10 -0.00107637 0)
(-1.80221e-10 -0.00107637 0)
(-1.86146e-10 -0.00107637 0)
(-1.91943e-10 -0.00107637 0)
(-1.97636e-10 -0.00107637 0)
(-2.03151e-10 -0.00107637 0)
(-2.08506e-10 -0.00107637 0)
(-2.13733e-10 -0.00107637 0)
(-2.18775e-10 -0.00107637 0)
(-2.23656e-10 -0.00107637 0)
(-2.28408e-10 -0.00107637 0)
(-2.32956e-10 -0.00107637 0)
(-2.37279e-10 -0.00107637 0)
(-2.41444e-10 -0.00107637 0)
(-2.45448e-10 -0.00107637 0)
(-2.49237e-10 -0.00107637 0)
(-2.52825e-10 -0.00107637 0)
(-2.56227e-10 -0.00107637 0)
(-2.59401e-10 -0.00107637 0)
(-2.62338e-10 -0.00107637 0)
(-2.65096e-10 -0.00107637 0)
(-2.67688e-10 -0.00107637 0)
(-2.70048e-10 -0.00107637 0)
(-2.72143e-10 -0.00107637 0)
(-2.74018e-10 -0.00107637 0)
(-2.75711e-10 -0.00107637 0)
(-2.77183e-10 -0.00107637 0)
(-2.78381e-10 -0.00107637 0)
(-2.79312e-10 -0.00107637 0)
(-2.80021e-10 -0.00107637 0)
(-2.80514e-10 -0.00107637 0)
(-2.80744e-10 -0.00107637 0)
(-2.80679e-10 -0.00107637 0)
(-2.80331e-10 -0.00107637 0)
(-2.79729e-10 -0.00107637 0)
(-2.78868e-10 -0.00107637 0)
(-2.77717e-10 -0.00107637 0)
(-2.76255e-10 -0.00107637 0)
(-2.74492e-10 -0.00107637 0)
(-2.7245e-10 -0.00107637 0)
(-2.70129e-10 -0.00107637 0)
(-2.67501e-10 -0.00107637 0)
(-2.64547e-10 -0.00107637 0)
(-2.61267e-10 -0.00107637 0)
(-2.57684e-10 -0.00107637 0)
(-2.53813e-10 -0.00107637 0)
(-2.49648e-10 -0.00107637 0)
(-2.45165e-10 -0.00107637 0)
(-2.40347e-10 -0.00107637 0)
(-2.35199e-10 -0.00107637 0)
(-2.29742e-10 -0.00107637 0)
(-2.23999e-10 -0.00107637 0)
(-2.17975e-10 -0.00107637 0)
(-2.11659e-10 -0.00107637 0)
(-2.05042e-10 -0.00107637 0)
(-1.98126e-10 -0.00107637 0)
(-1.90931e-10 -0.00107637 0)
(-1.83479e-10 -0.00107637 0)
(-1.75783e-10 -0.00107637 0)
(-1.67848e-10 -0.00107637 0)
(-1.59667e-10 -0.00107637 0)
(-1.51234e-10 -0.00107637 0)
(-1.42556e-10 -0.00107637 0)
(-1.3365e-10 -0.00107637 0)
(-1.24538e-10 -0.00107637 0)
(-1.15243e-10 -0.00107637 0)
(-1.05789e-10 -0.00107637 0)
(-9.61955e-11 -0.00107637 0)
(-8.64639e-11 -0.00107637 0)
(-7.65759e-11 -0.00107637 0)
(-6.65254e-11 -0.00107637 0)
(-5.63759e-11 -0.00107637 0)
(-4.62178e-11 -0.00107637 0)
(-3.60265e-11 -0.00107637 0)
(-2.57449e-11 -0.00107637 0)
(-1.54468e-11 -0.00107637 0)
(-5.15594e-12 -0.00107637 0)
(-4.07481e-12 -0.00108023 0)
(-1.22933e-11 -0.00108023 0)
(-2.05334e-11 -0.00108023 0)
(-2.86973e-11 -0.00108023 0)
(-3.67941e-11 -0.00108023 0)
(-4.48236e-11 -0.00108023 0)
(-5.27838e-11 -0.00108023 0)
(-6.06906e-11 -0.00108023 0)
(-6.85306e-11 -0.00108023 0)
(-7.62684e-11 -0.00108023 0)
(-8.39418e-11 -0.00108023 0)
(-9.15484e-11 -0.00108023 0)
(-9.90517e-11 -0.00108023 0)
(-1.06472e-10 -0.00108023 0)
(-1.13813e-10 -0.00108023 0)
(-1.21049e-10 -0.00108023 0)
(-1.28193e-10 -0.00108023 0)
(-1.35223e-10 -0.00108023 0)
(-1.42128e-10 -0.00108023 0)
(-1.48912e-10 -0.00108023 0)
(-1.55557e-10 -0.00108023 0)
(-1.62088e-10 -0.00108023 0)
(-1.68468e-10 -0.00108023 0)
(-1.74685e-10 -0.00108023 0)
(-1.80787e-10 -0.00108023 0)
(-1.86739e-10 -0.00108023 0)
(-1.92559e-10 -0.00108023 0)
(-1.98263e-10 -0.00108023 0)
(-2.03782e-10 -0.00108023 0)
(-2.09153e-10 -0.00108023 0)
(-2.1441e-10 -0.00108023 0)
(-2.19482e-10 -0.00108023 0)
(-2.24379e-10 -0.00108023 0)
(-2.2914e-10 -0.00108023 0)
(-2.337e-10 -0.00108023 0)
(-2.38045e-10 -0.00108023 0)
(-2.42239e-10 -0.00108023 0)
(-2.46266e-10 -0.00108023 0)
(-2.50068e-10 -0.00108023 0)
(-2.53664e-10 -0.00108023 0)
(-2.57079e-10 -0.00108023 0)
(-2.60273e-10 -0.00108023 0)
(-2.63234e-10 -0.00108023 0)
(-2.66013e-10 -0.00108023 0)
(-2.68622e-10 -0.00108023 0)
(-2.70997e-10 -0.00108023 0)
(-2.7311e-10 -0.00108023 0)
(-2.75009e-10 -0.00108023 0)
(-2.76729e-10 -0.00108023 0)
(-2.78227e-10 -0.00108023 0)
(-2.79445e-10 -0.00108023 0)
(-2.80395e-10 -0.00108023 0)
(-2.81125e-10 -0.00108023 0)
(-2.81644e-10 -0.00108023 0)
(-2.81902e-10 -0.00108023 0)
(-2.81861e-10 -0.00108023 0)
(-2.81531e-10 -0.00108023 0)
(-2.80943e-10 -0.00108023 0)
(-2.80099e-10 -0.00108023 0)
(-2.78968e-10 -0.00108023 0)
(-2.77526e-10 -0.00108023 0)
(-2.7578e-10 -0.00108023 0)
(-2.7375e-10 -0.00108023 0)
(-2.71435e-10 -0.00108023 0)
(-2.68814e-10 -0.00108023 0)
(-2.65865e-10 -0.00108023 0)
(-2.62592e-10 -0.00108023 0)
(-2.59013e-10 -0.00108023 0)
(-2.55143e-10 -0.00108023 0)
(-2.50974e-10 -0.00108023 0)
(-2.46482e-10 -0.00108023 0)
(-2.4165e-10 -0.00108023 0)
(-2.36488e-10 -0.00108023 0)
(-2.31017e-10 -0.00108023 0)
(-2.25259e-10 -0.00108023 0)
(-2.19215e-10 -0.00108023 0)
(-2.12874e-10 -0.00108023 0)
(-2.06228e-10 -0.00108023 0)
(-1.99281e-10 -0.00108023 0)
(-1.92054e-10 -0.00108023 0)
(-1.84569e-10 -0.00108023 0)
(-1.76842e-10 -0.00108023 0)
(-1.68872e-10 -0.00108023 0)
(-1.60652e-10 -0.00108023 0)
(-1.52175e-10 -0.00108023 0)
(-1.43449e-10 -0.00108023 0)
(-1.34494e-10 -0.00108023 0)
(-1.25336e-10 -0.00108023 0)
(-1.15993e-10 -0.00108023 0)
(-1.06481e-10 -0.00108023 0)
(-9.68172e-11 -0.00108023 0)
(-8.70229e-11 -0.00108023 0)
(-7.71014e-11 -0.00108023 0)
(-6.70326e-11 -0.00108023 0)
(-5.68231e-11 -0.00108023 0)
(-4.65555e-11 -0.00108023 0)
(-3.62824e-11 -0.00108023 0)
(-2.59682e-11 -0.00108023 0)
(-1.5614e-11 -0.00108023 0)
(-5.21712e-12 -0.00108023 0)
(-4.0703e-12 -0.00108464 0)
(-1.22768e-11 -0.00108464 0)
(-2.05284e-11 -0.00108464 0)
(-2.87248e-11 -0.00108464 0)
(-3.68507e-11 -0.00108464 0)
(-4.49282e-11 -0.00108464 0)
(-5.29398e-11 -0.00108464 0)
(-6.08659e-11 -0.00108464 0)
(-6.87347e-11 -0.00108464 0)
(-7.65352e-11 -0.00108464 0)
(-8.4244e-11 -0.00108464 0)
(-9.18753e-11 -0.00108464 0)
(-9.94186e-11 -0.00108464 0)
(-1.06863e-10 -0.00108464 0)
(-1.14233e-10 -0.00108464 0)
(-1.21507e-10 -0.00108464 0)
(-1.28675e-10 -0.00108464 0)
(-1.35722e-10 -0.00108464 0)
(-1.42653e-10 -0.00108464 0)
(-1.49473e-10 -0.00108464 0)
(-1.56144e-10 -0.00108464 0)
(-1.62684e-10 -0.00108464 0)
(-1.69073e-10 -0.00108464 0)
(-1.75312e-10 -0.00108464 0)
(-1.81441e-10 -0.00108464 0)
(-1.87411e-10 -0.00108464 0)
(-1.9324e-10 -0.00108464 0)
(-1.98954e-10 -0.00108464 0)
(-2.04493e-10 -0.00108464 0)
(-2.09895e-10 -0.00108464 0)
(-2.1518e-10 -0.00108464 0)
(-2.20269e-10 -0.00108464 0)
(-2.25178e-10 -0.00108464 0)
(-2.29956e-10 -0.00108464 0)
(-2.34541e-10 -0.00108464 0)
(-2.38914e-10 -0.00108464 0)
(-2.43133e-10 -0.00108464 0)
(-2.47177e-10 -0.00108464 0)
(-2.50991e-10 -0.00108464 0)
(-2.54603e-10 -0.00108464 0)
(-2.58039e-10 -0.00108464 0)
(-2.61258e-10 -0.00108464 0)
(-2.64241e-10 -0.00108464 0)
(-2.67038e-10 -0.00108464 0)
(-2.69664e-10 -0.00108464 0)
(-2.72061e-10 -0.00108464 0)
(-2.74198e-10 -0.00108464 0)
(-2.76125e-10 -0.00108464 0)
(-2.77872e-10 -0.00108464 0)
(-2.79394e-10 -0.00108464 0)
(-2.80634e-10 -0.00108464 0)
(-2.81606e-10 -0.00108464 0)
(-2.82364e-10 -0.00108464 0)
(-2.82913e-10 -0.00108464 0)
(-2.832e-10 -0.00108464 0)
(-2.83181e-10 -0.00108464 0)
(-2.82869e-10 -0.00108464 0)
(-2.82301e-10 -0.00108464 0)
(-2.81478e-10 -0.00108464 0)
(-2.8037e-10 -0.00108464 0)
(-2.78949e-10 -0.00108464 0)
(-2.77219e-10 -0.00108464 0)
(-2.752e-10 -0.00108464 0)
(-2.72894e-10 -0.00108464 0)
(-2.70281e-10 -0.00108464 0)
(-2.67342e-10 -0.00108464 0)
(-2.64075e-10 -0.00108464 0)
(-2.605e-10 -0.00108464 0)
(-2.56629e-10 -0.00108464 0)
(-2.52454e-10 -0.00108464 0)
(-2.47951e-10 -0.00108464 0)
(-2.43107e-10 -0.00108464 0)
(-2.37931e-10 -0.00108464 0)
(-2.32446e-10 -0.00108464 0)
(-2.26669e-10 -0.00108464 0)
(-2.20601e-10 -0.00108464 0)
(-2.14232e-10 -0.00108464 0)
(-2.07553e-10 -0.00108464 0)
(-2.00572e-10 -0.00108464 0)
(-1.9331e-10 -0.00108464 0)
(-1.8579e-10 -0.00108464 0)
(-1.78027e-10 -0.00108464 0)
(-1.70018e-10 -0.00108464 0)
(-1.61754e-10 -0.00108464 0)
(-1.53227e-10 -0.00108464 0)
(-1.44446e-10 -0.00108464 0)
(-1.35432e-10 -0.00108464 0)
(-1.26218e-10 -0.00108464 0)
(-1.16825e-10 -0.00108464 0)
(-1.07262e-10 -0.00108464 0)
(-9.75334e-11 -0.00108464 0)
(-8.76557e-11 -0.00108464 0)
(-7.76548e-11 -0.00108464 0)
(-6.75383e-11 -0.00108464 0)
(-5.7292e-11 -0.00108464 0)
(-4.69492e-11 -0.00108464 0)
(-3.65754e-11 -0.00108464 0)
(-2.61829e-11 -0.00108464 0)
(-1.57601e-11 -0.00108464 0)
(-5.27091e-12 -0.00108464 0)
(-4.08384e-12 -0.00108961 0)
(-1.22966e-11 -0.00108961 0)
(-2.05477e-11 -0.00108961 0)
(-2.87794e-11 -0.00108961 0)
(-3.69534e-11 -0.00108961 0)
(-4.50578e-11 -0.00108961 0)
(-5.31121e-11 -0.00108961 0)
(-6.10925e-11 -0.00108961 0)
(-6.8992e-11 -0.00108961 0)
(-7.68298e-11 -0.00108961 0)
(-8.45815e-11 -0.00108961 0)
(-9.22394e-11 -0.00108961 0)
(-9.98164e-11 -0.00108961 0)
(-1.07307e-10 -0.00108961 0)
(-1.1471e-10 -0.00108961 0)
(-1.22004e-10 -0.00108961 0)
(-1.29197e-10 -0.00108961 0)
(-1.36282e-10 -0.00108961 0)
(-1.43249e-10 -0.00108961 0)
(-1.50092e-10 -0.00108961 0)
(-1.56776e-10 -0.00108961 0)
(-1.63336e-10 -0.00108961 0)
(-1.69751e-10 -0.00108961 0)
(-1.76015e-10 -0.00108961 0)
(-1.82163e-10 -0.00108961 0)
(-1.88143e-10 -0.00108961 0)
(-1.93986e-10 -0.00108961 0)
(-1.99723e-10 -0.00108961 0)
(-2.05291e-10 -0.00108961 0)
(-2.10719e-10 -0.00108961 0)
(-2.16024e-10 -0.00108961 0)
(-2.21129e-10 -0.00108961 0)
(-2.26057e-10 -0.00108961 0)
(-2.30861e-10 -0.00108961 0)
(-2.35477e-10 -0.00108961 0)
(-2.39876e-10 -0.00108961 0)
(-2.44113e-10 -0.00108961 0)
(-2.48174e-10 -0.00108961 0)
(-2.52007e-10 -0.00108961 0)
(-2.55642e-10 -0.00108961 0)
(-2.59105e-10 -0.00108961 0)
(-2.62347e-10 -0.00108961 0)
(-2.65349e-10 -0.00108961 0)
(-2.68164e-10 -0.00108961 0)
(-2.70813e-10 -0.00108961 0)
(-2.73237e-10 -0.00108961 0)
(-2.75403e-10 -0.00108961 0)
(-2.77357e-10 -0.00108961 0)
(-2.79131e-10 -0.00108961 0)
(-2.80678e-10 -0.00108961 0)
(-2.81943e-10 -0.00108961 0)
(-2.82944e-10 -0.00108961 0)
(-2.83733e-10 -0.00108961 0)
(-2.84313e-10 -0.00108961 0)
(-2.84627e-10 -0.00108961 0)
(-2.84631e-10 -0.00108961 0)
(-2.84341e-10 -0.00108961 0)
(-2.83795e-10 -0.00108961 0)
(-2.82999e-10 -0.00108961 0)
(-2.81916e-10 -0.00108961 0)
(-2.80515e-10 -0.00108961 0)
(-2.788e-10 -0.00108961 0)
(-2.76792e-10 -0.00108961 0)
(-2.74497e-10 -0.00108961 0)
(-2.71897e-10 -0.00108961 0)
(-2.68968e-10 -0.00108961 0)
(-2.65709e-10 -0.00108961 0)
(-2.62136e-10 -0.00108961 0)
(-2.58262e-10 -0.00108961 0)
(-2.54079e-10 -0.00108961 0)
(-2.49567e-10 -0.00108961 0)
(-2.44711e-10 -0.00108961 0)
(-2.39521e-10 -0.00108961 0)
(-2.34019e-10 -0.00108961 0)
(-2.2822e-10 -0.00108961 0)
(-2.22125e-10 -0.00108961 0)
(-2.15724e-10 -0.00108961 0)
(-2.09011e-10 -0.00108961 0)
(-2.01993e-10 -0.00108961 0)
(-1.94694e-10 -0.00108961 0)
(-1.87136e-10 -0.00108961 0)
(-1.79331e-10 -0.00108961 0)
(-1.71278e-10 -0.00108961 0)
(-1.62964e-10 -0.00108961 0)
(-1.54385e-10 -0.00108961 0)
(-1.45546e-10 -0.00108961 0)
(-1.36469e-10 -0.00108961 0)
(-1.27186e-10 -0.00108961 0)
(-1.17727e-10 -0.00108961 0)
(-1.08106e-10 -0.00108961 0)
(-9.832e-11 -0.00108961 0)
(-8.83692e-11 -0.00108961 0)
(-7.82755e-11 -0.00108961 0)
(-6.80723e-11 -0.00108961 0)
(-5.77655e-11 -0.00108961 0)
(-4.73611e-11 -0.00108961 0)
(-3.69001e-11 -0.00108961 0)
(-2.6414e-11 -0.00108961 0)
(-1.5905e-11 -0.00108961 0)
(-5.32219e-12 -0.00108961 0)
(-4.08575e-12 -0.00109513 0)
(-1.23328e-11 -0.00109513 0)
(-2.06189e-11 -0.00109513 0)
(-2.88645e-11 -0.00109513 0)
(-3.70785e-11 -0.00109513 0)
(-4.52251e-11 -0.00109513 0)
(-5.33116e-11 -0.00109513 0)
(-6.13424e-11 -0.00109513 0)